V -t * -v 1.0a5 -a 0
A -t * -n 1 -p 0 -o 0x7fffffff -c 30 -a 1
A -t * -h 1 -m 1073741823 -s 0
n -t * -a 4 -s 4 -S UP -v circle -c black -i black
n -t * -a 0 -s 0 -S UP -v circle -c black -i black
n -t * -a 5 -s 5 -S UP -v circle -c black -i black
n -t * -a 1 -s 1 -S UP -v circle -c black -i black
n -t * -a 2 -s 2 -S UP -v circle -c black -i black
n -t * -a 3 -s 3 -S UP -v circle -c black -i black
l -t * -s 0 -d 4 -S UP -r 1000000 -D 0.050000000000000003 -c black
l -t * -s 1 -d 4 -S UP -r 1000000 -D 0.050000000000000003 -c black
l -t * -s 2 -d 5 -S UP -r 1000000 -D 0.001 -c black
l -t * -s 3 -d 5 -S UP -r 1000000 -D 0.001 -c black
l -t * -s 4 -d 5 -S UP -r 1000000 -D 0.050000000000000003 -c black
q -t * -s 5 -d 4 -a 0.5
q -t * -s 4 -d 5 -a 0.5
+ -t 0 -s 0 -d 4 -p tcp -e 40 -c 0 -i 0 -a 0 -x {0.0 2.0 0 ------- null}
- -t 0 -s 0 -d 4 -p tcp -e 40 -c 0 -i 0 -a 0 -x {0.0 2.0 0 ------- null}
h -t 0 -s 0 -d 4 -p tcp -e 40 -c 0 -i 0 -a 0 -x {0.0 2.0 -1 ------- null}
r -t 0.05032 -s 0 -d 4 -p tcp -e 40 -c 0 -i 0 -a 0 -x {0.0 2.0 0 ------- null}
+ -t 0.05032 -s 4 -d 5 -p tcp -e 40 -c 0 -i 0 -a 0 -x {0.0 2.0 0 ------- null}
- -t 0.05032 -s 4 -d 5 -p tcp -e 40 -c 0 -i 0 -a 0 -x {0.0 2.0 0 ------- null}
h -t 0.05032 -s 4 -d 5 -p tcp -e 40 -c 0 -i 0 -a 0 -x {0.0 2.0 -1 ------- null}
r -t 0.10064 -s 4 -d 5 -p tcp -e 40 -c 0 -i 0 -a 0 -x {0.0 2.0 0 ------- null}
+ -t 0.10064 -s 5 -d 2 -p tcp -e 40 -c 0 -i 0 -a 0 -x {0.0 2.0 0 ------- null}
- -t 0.10064 -s 5 -d 2 -p tcp -e 40 -c 0 -i 0 -a 0 -x {0.0 2.0 0 ------- null}
h -t 0.10064 -s 5 -d 2 -p tcp -e 40 -c 0 -i 0 -a 0 -x {0.0 2.0 -1 ------- null}
r -t 0.10196 -s 5 -d 2 -p tcp -e 40 -c 0 -i 0 -a 0 -x {0.0 2.0 0 ------- null}
+ -t 0.10196 -s 2 -d 5 -p ack -e 40 -c 0 -i 1 -a 0 -x {2.0 0.0 0 ------- null}
- -t 0.10196 -s 2 -d 5 -p ack -e 40 -c 0 -i 1 -a 0 -x {2.0 0.0 0 ------- null}
h -t 0.10196 -s 2 -d 5 -p ack -e 40 -c 0 -i 1 -a 0 -x {2.0 0.0 -1 ------- null}
r -t 0.10328 -s 2 -d 5 -p ack -e 40 -c 0 -i 1 -a 0 -x {2.0 0.0 0 ------- null}
+ -t 0.10328 -s 5 -d 4 -p ack -e 40 -c 0 -i 1 -a 0 -x {2.0 0.0 0 ------- null}
- -t 0.10328 -s 5 -d 4 -p ack -e 40 -c 0 -i 1 -a 0 -x {2.0 0.0 0 ------- null}
h -t 0.10328 -s 5 -d 4 -p ack -e 40 -c 0 -i 1 -a 0 -x {2.0 0.0 -1 ------- null}
r -t 0.1536 -s 5 -d 4 -p ack -e 40 -c 0 -i 1 -a 0 -x {2.0 0.0 0 ------- null}
+ -t 0.1536 -s 4 -d 0 -p ack -e 40 -c 0 -i 1 -a 0 -x {2.0 0.0 0 ------- null}
- -t 0.1536 -s 4 -d 0 -p ack -e 40 -c 0 -i 1 -a 0 -x {2.0 0.0 0 ------- null}
h -t 0.1536 -s 4 -d 0 -p ack -e 40 -c 0 -i 1 -a 0 -x {2.0 0.0 -1 ------- null}
r -t 0.20392 -s 4 -d 0 -p ack -e 40 -c 0 -i 1 -a 0 -x {2.0 0.0 0 ------- null}
+ -t 0.20392 -s 0 -d 4 -p tcp -e 1040 -c 0 -i 2 -a 0 -x {0.0 2.0 1 ------- null}
- -t 0.20392 -s 0 -d 4 -p tcp -e 1040 -c 0 -i 2 -a 0 -x {0.0 2.0 1 ------- null}
h -t 0.20392 -s 0 -d 4 -p tcp -e 1040 -c 0 -i 2 -a 0 -x {0.0 2.0 -1 ------- null}
+ -t 0.20392 -s 0 -d 4 -p tcp -e 1040 -c 0 -i 3 -a 0 -x {0.0 2.0 2 ------- null}
- -t 0.21224 -s 0 -d 4 -p tcp -e 1040 -c 0 -i 3 -a 0 -x {0.0 2.0 2 ------- null}
h -t 0.21224 -s 0 -d 4 -p tcp -e 1040 -c 0 -i 3 -a 0 -x {0.0 2.0 -1 ------- null}
r -t 0.26224 -s 0 -d 4 -p tcp -e 1040 -c 0 -i 2 -a 0 -x {0.0 2.0 1 ------- null}
+ -t 0.26224 -s 4 -d 5 -p tcp -e 1040 -c 0 -i 2 -a 0 -x {0.0 2.0 1 ------- null}
- -t 0.26224 -s 4 -d 5 -p tcp -e 1040 -c 0 -i 2 -a 0 -x {0.0 2.0 1 ------- null}
h -t 0.26224 -s 4 -d 5 -p tcp -e 1040 -c 0 -i 2 -a 0 -x {0.0 2.0 -1 ------- null}
r -t 0.27056 -s 0 -d 4 -p tcp -e 1040 -c 0 -i 3 -a 0 -x {0.0 2.0 2 ------- null}
+ -t 0.27056 -s 4 -d 5 -p tcp -e 1040 -c 0 -i 3 -a 0 -x {0.0 2.0 2 ------- null}
- -t 0.27056 -s 4 -d 5 -p tcp -e 1040 -c 0 -i 3 -a 0 -x {0.0 2.0 2 ------- null}
h -t 0.27056 -s 4 -d 5 -p tcp -e 1040 -c 0 -i 3 -a 0 -x {0.0 2.0 -1 ------- null}
r -t 0.32056 -s 4 -d 5 -p tcp -e 1040 -c 0 -i 2 -a 0 -x {0.0 2.0 1 ------- null}
+ -t 0.32056 -s 5 -d 2 -p tcp -e 1040 -c 0 -i 2 -a 0 -x {0.0 2.0 1 ------- null}
- -t 0.32056 -s 5 -d 2 -p tcp -e 1040 -c 0 -i 2 -a 0 -x {0.0 2.0 1 ------- null}
h -t 0.32056 -s 5 -d 2 -p tcp -e 1040 -c 0 -i 2 -a 0 -x {0.0 2.0 -1 ------- null}
r -t 0.32888 -s 4 -d 5 -p tcp -e 1040 -c 0 -i 3 -a 0 -x {0.0 2.0 2 ------- null}
+ -t 0.32888 -s 5 -d 2 -p tcp -e 1040 -c 0 -i 3 -a 0 -x {0.0 2.0 2 ------- null}
- -t 0.32888 -s 5 -d 2 -p tcp -e 1040 -c 0 -i 3 -a 0 -x {0.0 2.0 2 ------- null}
h -t 0.32888 -s 5 -d 2 -p tcp -e 1040 -c 0 -i 3 -a 0 -x {0.0 2.0 -1 ------- null}
r -t 0.32988 -s 5 -d 2 -p tcp -e 1040 -c 0 -i 2 -a 0 -x {0.0 2.0 1 ------- null}
+ -t 0.32988 -s 2 -d 5 -p ack -e 40 -c 0 -i 4 -a 0 -x {2.0 0.0 1 ------- null}
- -t 0.32988 -s 2 -d 5 -p ack -e 40 -c 0 -i 4 -a 0 -x {2.0 0.0 1 ------- null}
h -t 0.32988 -s 2 -d 5 -p ack -e 40 -c 0 -i 4 -a 0 -x {2.0 0.0 -1 ------- null}
r -t 0.3312 -s 2 -d 5 -p ack -e 40 -c 0 -i 4 -a 0 -x {2.0 0.0 1 ------- null}
+ -t 0.3312 -s 5 -d 4 -p ack -e 40 -c 0 -i 4 -a 0 -x {2.0 0.0 1 ------- null}
- -t 0.3312 -s 5 -d 4 -p ack -e 40 -c 0 -i 4 -a 0 -x {2.0 0.0 1 ------- null}
h -t 0.3312 -s 5 -d 4 -p ack -e 40 -c 0 -i 4 -a 0 -x {2.0 0.0 -1 ------- null}
r -t 0.3382 -s 5 -d 2 -p tcp -e 1040 -c 0 -i 3 -a 0 -x {0.0 2.0 2 ------- null}
+ -t 0.3382 -s 2 -d 5 -p ack -e 40 -c 0 -i 5 -a 0 -x {2.0 0.0 2 ------- null}
- -t 0.3382 -s 2 -d 5 -p ack -e 40 -c 0 -i 5 -a 0 -x {2.0 0.0 2 ------- null}
h -t 0.3382 -s 2 -d 5 -p ack -e 40 -c 0 -i 5 -a 0 -x {2.0 0.0 -1 ------- null}
r -t 0.33952 -s 2 -d 5 -p ack -e 40 -c 0 -i 5 -a 0 -x {2.0 0.0 2 ------- null}
+ -t 0.33952 -s 5 -d 4 -p ack -e 40 -c 0 -i 5 -a 0 -x {2.0 0.0 2 ------- null}
- -t 0.33952 -s 5 -d 4 -p ack -e 40 -c 0 -i 5 -a 0 -x {2.0 0.0 2 ------- null}
h -t 0.33952 -s 5 -d 4 -p ack -e 40 -c 0 -i 5 -a 0 -x {2.0 0.0 -1 ------- null}
r -t 0.38152 -s 5 -d 4 -p ack -e 40 -c 0 -i 4 -a 0 -x {2.0 0.0 1 ------- null}
+ -t 0.38152 -s 4 -d 0 -p ack -e 40 -c 0 -i 4 -a 0 -x {2.0 0.0 1 ------- null}
- -t 0.38152 -s 4 -d 0 -p ack -e 40 -c 0 -i 4 -a 0 -x {2.0 0.0 1 ------- null}
h -t 0.38152 -s 4 -d 0 -p ack -e 40 -c 0 -i 4 -a 0 -x {2.0 0.0 -1 ------- null}
r -t 0.38984 -s 5 -d 4 -p ack -e 40 -c 0 -i 5 -a 0 -x {2.0 0.0 2 ------- null}
+ -t 0.38984 -s 4 -d 0 -p ack -e 40 -c 0 -i 5 -a 0 -x {2.0 0.0 2 ------- null}
- -t 0.38984 -s 4 -d 0 -p ack -e 40 -c 0 -i 5 -a 0 -x {2.0 0.0 2 ------- null}
h -t 0.38984 -s 4 -d 0 -p ack -e 40 -c 0 -i 5 -a 0 -x {2.0 0.0 -1 ------- null}
r -t 0.43184 -s 4 -d 0 -p ack -e 40 -c 0 -i 4 -a 0 -x {2.0 0.0 1 ------- null}
+ -t 0.43184 -s 0 -d 4 -p tcp -e 1040 -c 0 -i 6 -a 0 -x {0.0 2.0 3 ------- null}
- -t 0.43184 -s 0 -d 4 -p tcp -e 1040 -c 0 -i 6 -a 0 -x {0.0 2.0 3 ------- null}
h -t 0.43184 -s 0 -d 4 -p tcp -e 1040 -c 0 -i 6 -a 0 -x {0.0 2.0 -1 ------- null}
+ -t 0.43184 -s 0 -d 4 -p tcp -e 1040 -c 0 -i 7 -a 0 -x {0.0 2.0 4 ------- null}
r -t 0.44016 -s 4 -d 0 -p ack -e 40 -c 0 -i 5 -a 0 -x {2.0 0.0 2 ------- null}
+ -t 0.44016 -s 0 -d 4 -p tcp -e 1040 -c 0 -i 8 -a 0 -x {0.0 2.0 5 ------- null}
+ -t 0.44016 -s 0 -d 4 -p tcp -e 1040 -c 0 -i 9 -a 0 -x {0.0 2.0 6 ------- null}
- -t 0.44016 -s 0 -d 4 -p tcp -e 1040 -c 0 -i 7 -a 0 -x {0.0 2.0 4 ------- null}
h -t 0.44016 -s 0 -d 4 -p tcp -e 1040 -c 0 -i 7 -a 0 -x {0.0 2.0 -1 ------- null}
- -t 0.44848 -s 0 -d 4 -p tcp -e 1040 -c 0 -i 8 -a 0 -x {0.0 2.0 5 ------- null}
h -t 0.44848 -s 0 -d 4 -p tcp -e 1040 -c 0 -i 8 -a 0 -x {0.0 2.0 -1 ------- null}
- -t 0.4568 -s 0 -d 4 -p tcp -e 1040 -c 0 -i 9 -a 0 -x {0.0 2.0 6 ------- null}
h -t 0.4568 -s 0 -d 4 -p tcp -e 1040 -c 0 -i 9 -a 0 -x {0.0 2.0 -1 ------- null}
r -t 0.49016 -s 0 -d 4 -p tcp -e 1040 -c 0 -i 6 -a 0 -x {0.0 2.0 3 ------- null}
+ -t 0.49016 -s 4 -d 5 -p tcp -e 1040 -c 0 -i 6 -a 0 -x {0.0 2.0 3 ------- null}
- -t 0.49016 -s 4 -d 5 -p tcp -e 1040 -c 0 -i 6 -a 0 -x {0.0 2.0 3 ------- null}
h -t 0.49016 -s 4 -d 5 -p tcp -e 1040 -c 0 -i 6 -a 0 -x {0.0 2.0 -1 ------- null}
r -t 0.49848 -s 0 -d 4 -p tcp -e 1040 -c 0 -i 7 -a 0 -x {0.0 2.0 4 ------- null}
+ -t 0.49848 -s 4 -d 5 -p tcp -e 1040 -c 0 -i 7 -a 0 -x {0.0 2.0 4 ------- null}
- -t 0.49848 -s 4 -d 5 -p tcp -e 1040 -c 0 -i 7 -a 0 -x {0.0 2.0 4 ------- null}
h -t 0.49848 -s 4 -d 5 -p tcp -e 1040 -c 0 -i 7 -a 0 -x {0.0 2.0 -1 ------- null}
r -t 0.5068 -s 0 -d 4 -p tcp -e 1040 -c 0 -i 8 -a 0 -x {0.0 2.0 5 ------- null}
+ -t 0.5068 -s 4 -d 5 -p tcp -e 1040 -c 0 -i 8 -a 0 -x {0.0 2.0 5 ------- null}
- -t 0.5068 -s 4 -d 5 -p tcp -e 1040 -c 0 -i 8 -a 0 -x {0.0 2.0 5 ------- null}
h -t 0.5068 -s 4 -d 5 -p tcp -e 1040 -c 0 -i 8 -a 0 -x {0.0 2.0 -1 ------- null}
r -t 0.51512 -s 0 -d 4 -p tcp -e 1040 -c 0 -i 9 -a 0 -x {0.0 2.0 6 ------- null}
+ -t 0.51512 -s 4 -d 5 -p tcp -e 1040 -c 0 -i 9 -a 0 -x {0.0 2.0 6 ------- null}
- -t 0.51512 -s 4 -d 5 -p tcp -e 1040 -c 0 -i 9 -a 0 -x {0.0 2.0 6 ------- null}
h -t 0.51512 -s 4 -d 5 -p tcp -e 1040 -c 0 -i 9 -a 0 -x {0.0 2.0 -1 ------- null}
r -t 0.54848 -s 4 -d 5 -p tcp -e 1040 -c 0 -i 6 -a 0 -x {0.0 2.0 3 ------- null}
+ -t 0.54848 -s 5 -d 2 -p tcp -e 1040 -c 0 -i 6 -a 0 -x {0.0 2.0 3 ------- null}
- -t 0.54848 -s 5 -d 2 -p tcp -e 1040 -c 0 -i 6 -a 0 -x {0.0 2.0 3 ------- null}
h -t 0.54848 -s 5 -d 2 -p tcp -e 1040 -c 0 -i 6 -a 0 -x {0.0 2.0 -1 ------- null}
r -t 0.5568 -s 4 -d 5 -p tcp -e 1040 -c 0 -i 7 -a 0 -x {0.0 2.0 4 ------- null}
+ -t 0.5568 -s 5 -d 2 -p tcp -e 1040 -c 0 -i 7 -a 0 -x {0.0 2.0 4 ------- null}
- -t 0.5568 -s 5 -d 2 -p tcp -e 1040 -c 0 -i 7 -a 0 -x {0.0 2.0 4 ------- null}
h -t 0.5568 -s 5 -d 2 -p tcp -e 1040 -c 0 -i 7 -a 0 -x {0.0 2.0 -1 ------- null}
r -t 0.5578 -s 5 -d 2 -p tcp -e 1040 -c 0 -i 6 -a 0 -x {0.0 2.0 3 ------- null}
+ -t 0.5578 -s 2 -d 5 -p ack -e 40 -c 0 -i 10 -a 0 -x {2.0 0.0 3 ------- null}
- -t 0.5578 -s 2 -d 5 -p ack -e 40 -c 0 -i 10 -a 0 -x {2.0 0.0 3 ------- null}
h -t 0.5578 -s 2 -d 5 -p ack -e 40 -c 0 -i 10 -a 0 -x {2.0 0.0 -1 ------- null}
r -t 0.55912 -s 2 -d 5 -p ack -e 40 -c 0 -i 10 -a 0 -x {2.0 0.0 3 ------- null}
+ -t 0.55912 -s 5 -d 4 -p ack -e 40 -c 0 -i 10 -a 0 -x {2.0 0.0 3 ------- null}
- -t 0.55912 -s 5 -d 4 -p ack -e 40 -c 0 -i 10 -a 0 -x {2.0 0.0 3 ------- null}
h -t 0.55912 -s 5 -d 4 -p ack -e 40 -c 0 -i 10 -a 0 -x {2.0 0.0 -1 ------- null}
r -t 0.56512 -s 4 -d 5 -p tcp -e 1040 -c 0 -i 8 -a 0 -x {0.0 2.0 5 ------- null}
+ -t 0.56512 -s 5 -d 2 -p tcp -e 1040 -c 0 -i 8 -a 0 -x {0.0 2.0 5 ------- null}
- -t 0.56512 -s 5 -d 2 -p tcp -e 1040 -c 0 -i 8 -a 0 -x {0.0 2.0 5 ------- null}
h -t 0.56512 -s 5 -d 2 -p tcp -e 1040 -c 0 -i 8 -a 0 -x {0.0 2.0 -1 ------- null}
r -t 0.56612 -s 5 -d 2 -p tcp -e 1040 -c 0 -i 7 -a 0 -x {0.0 2.0 4 ------- null}
+ -t 0.56612 -s 2 -d 5 -p ack -e 40 -c 0 -i 11 -a 0 -x {2.0 0.0 4 ------- null}
- -t 0.56612 -s 2 -d 5 -p ack -e 40 -c 0 -i 11 -a 0 -x {2.0 0.0 4 ------- null}
h -t 0.56612 -s 2 -d 5 -p ack -e 40 -c 0 -i 11 -a 0 -x {2.0 0.0 -1 ------- null}
r -t 0.56744 -s 2 -d 5 -p ack -e 40 -c 0 -i 11 -a 0 -x {2.0 0.0 4 ------- null}
+ -t 0.56744 -s 5 -d 4 -p ack -e 40 -c 0 -i 11 -a 0 -x {2.0 0.0 4 ------- null}
- -t 0.56744 -s 5 -d 4 -p ack -e 40 -c 0 -i 11 -a 0 -x {2.0 0.0 4 ------- null}
h -t 0.56744 -s 5 -d 4 -p ack -e 40 -c 0 -i 11 -a 0 -x {2.0 0.0 -1 ------- null}
r -t 0.57344 -s 4 -d 5 -p tcp -e 1040 -c 0 -i 9 -a 0 -x {0.0 2.0 6 ------- null}
+ -t 0.57344 -s 5 -d 2 -p tcp -e 1040 -c 0 -i 9 -a 0 -x {0.0 2.0 6 ------- null}
- -t 0.57344 -s 5 -d 2 -p tcp -e 1040 -c 0 -i 9 -a 0 -x {0.0 2.0 6 ------- null}
h -t 0.57344 -s 5 -d 2 -p tcp -e 1040 -c 0 -i 9 -a 0 -x {0.0 2.0 -1 ------- null}
r -t 0.57444 -s 5 -d 2 -p tcp -e 1040 -c 0 -i 8 -a 0 -x {0.0 2.0 5 ------- null}
+ -t 0.57444 -s 2 -d 5 -p ack -e 40 -c 0 -i 12 -a 0 -x {2.0 0.0 5 ------- null}
- -t 0.57444 -s 2 -d 5 -p ack -e 40 -c 0 -i 12 -a 0 -x {2.0 0.0 5 ------- null}
h -t 0.57444 -s 2 -d 5 -p ack -e 40 -c 0 -i 12 -a 0 -x {2.0 0.0 -1 ------- null}
r -t 0.57576 -s 2 -d 5 -p ack -e 40 -c 0 -i 12 -a 0 -x {2.0 0.0 5 ------- null}
+ -t 0.57576 -s 5 -d 4 -p ack -e 40 -c 0 -i 12 -a 0 -x {2.0 0.0 5 ------- null}
- -t 0.57576 -s 5 -d 4 -p ack -e 40 -c 0 -i 12 -a 0 -x {2.0 0.0 5 ------- null}
h -t 0.57576 -s 5 -d 4 -p ack -e 40 -c 0 -i 12 -a 0 -x {2.0 0.0 -1 ------- null}
r -t 0.58276 -s 5 -d 2 -p tcp -e 1040 -c 0 -i 9 -a 0 -x {0.0 2.0 6 ------- null}
+ -t 0.58276 -s 2 -d 5 -p ack -e 40 -c 0 -i 13 -a 0 -x {2.0 0.0 6 ------- null}
- -t 0.58276 -s 2 -d 5 -p ack -e 40 -c 0 -i 13 -a 0 -x {2.0 0.0 6 ------- null}
h -t 0.58276 -s 2 -d 5 -p ack -e 40 -c 0 -i 13 -a 0 -x {2.0 0.0 -1 ------- null}
r -t 0.58408 -s 2 -d 5 -p ack -e 40 -c 0 -i 13 -a 0 -x {2.0 0.0 6 ------- null}
+ -t 0.58408 -s 5 -d 4 -p ack -e 40 -c 0 -i 13 -a 0 -x {2.0 0.0 6 ------- null}
- -t 0.58408 -s 5 -d 4 -p ack -e 40 -c 0 -i 13 -a 0 -x {2.0 0.0 6 ------- null}
h -t 0.58408 -s 5 -d 4 -p ack -e 40 -c 0 -i 13 -a 0 -x {2.0 0.0 -1 ------- null}
r -t 0.60944 -s 5 -d 4 -p ack -e 40 -c 0 -i 10 -a 0 -x {2.0 0.0 3 ------- null}
+ -t 0.60944 -s 4 -d 0 -p ack -e 40 -c 0 -i 10 -a 0 -x {2.0 0.0 3 ------- null}
- -t 0.60944 -s 4 -d 0 -p ack -e 40 -c 0 -i 10 -a 0 -x {2.0 0.0 3 ------- null}
h -t 0.60944 -s 4 -d 0 -p ack -e 40 -c 0 -i 10 -a 0 -x {2.0 0.0 -1 ------- null}
r -t 0.61776 -s 5 -d 4 -p ack -e 40 -c 0 -i 11 -a 0 -x {2.0 0.0 4 ------- null}
+ -t 0.61776 -s 4 -d 0 -p ack -e 40 -c 0 -i 11 -a 0 -x {2.0 0.0 4 ------- null}
- -t 0.61776 -s 4 -d 0 -p ack -e 40 -c 0 -i 11 -a 0 -x {2.0 0.0 4 ------- null}
h -t 0.61776 -s 4 -d 0 -p ack -e 40 -c 0 -i 11 -a 0 -x {2.0 0.0 -1 ------- null}
r -t 0.62608 -s 5 -d 4 -p ack -e 40 -c 0 -i 12 -a 0 -x {2.0 0.0 5 ------- null}
+ -t 0.62608 -s 4 -d 0 -p ack -e 40 -c 0 -i 12 -a 0 -x {2.0 0.0 5 ------- null}
- -t 0.62608 -s 4 -d 0 -p ack -e 40 -c 0 -i 12 -a 0 -x {2.0 0.0 5 ------- null}
h -t 0.62608 -s 4 -d 0 -p ack -e 40 -c 0 -i 12 -a 0 -x {2.0 0.0 -1 ------- null}
r -t 0.6344 -s 5 -d 4 -p ack -e 40 -c 0 -i 13 -a 0 -x {2.0 0.0 6 ------- null}
+ -t 0.6344 -s 4 -d 0 -p ack -e 40 -c 0 -i 13 -a 0 -x {2.0 0.0 6 ------- null}
- -t 0.6344 -s 4 -d 0 -p ack -e 40 -c 0 -i 13 -a 0 -x {2.0 0.0 6 ------- null}
h -t 0.6344 -s 4 -d 0 -p ack -e 40 -c 0 -i 13 -a 0 -x {2.0 0.0 -1 ------- null}
r -t 0.65976 -s 4 -d 0 -p ack -e 40 -c 0 -i 10 -a 0 -x {2.0 0.0 3 ------- null}
+ -t 0.65976 -s 0 -d 4 -p tcp -e 1040 -c 0 -i 14 -a 0 -x {0.0 2.0 7 ------- null}
- -t 0.65976 -s 0 -d 4 -p tcp -e 1040 -c 0 -i 14 -a 0 -x {0.0 2.0 7 ------- null}
h -t 0.65976 -s 0 -d 4 -p tcp -e 1040 -c 0 -i 14 -a 0 -x {0.0 2.0 -1 ------- null}
+ -t 0.65976 -s 0 -d 4 -p tcp -e 1040 -c 0 -i 15 -a 0 -x {0.0 2.0 8 ------- null}
r -t 0.66808 -s 4 -d 0 -p ack -e 40 -c 0 -i 11 -a 0 -x {2.0 0.0 4 ------- null}
+ -t 0.66808 -s 0 -d 4 -p tcp -e 1040 -c 0 -i 16 -a 0 -x {0.0 2.0 9 ------- null}
+ -t 0.66808 -s 0 -d 4 -p tcp -e 1040 -c 0 -i 17 -a 0 -x {0.0 2.0 10 ------- null}
- -t 0.66808 -s 0 -d 4 -p tcp -e 1040 -c 0 -i 15 -a 0 -x {0.0 2.0 8 ------- null}
h -t 0.66808 -s 0 -d 4 -p tcp -e 1040 -c 0 -i 15 -a 0 -x {0.0 2.0 -1 ------- null}
- -t 0.6764 -s 0 -d 4 -p tcp -e 1040 -c 0 -i 16 -a 0 -x {0.0 2.0 9 ------- null}
h -t 0.6764 -s 0 -d 4 -p tcp -e 1040 -c 0 -i 16 -a 0 -x {0.0 2.0 -1 ------- null}
r -t 0.6764 -s 4 -d 0 -p ack -e 40 -c 0 -i 12 -a 0 -x {2.0 0.0 5 ------- null}
+ -t 0.6764 -s 0 -d 4 -p tcp -e 1040 -c 0 -i 18 -a 0 -x {0.0 2.0 11 ------- null}
+ -t 0.6764 -s 0 -d 4 -p tcp -e 1040 -c 0 -i 19 -a 0 -x {0.0 2.0 12 ------- null}
- -t 0.68472 -s 0 -d 4 -p tcp -e 1040 -c 0 -i 17 -a 0 -x {0.0 2.0 10 ------- null}
h -t 0.68472 -s 0 -d 4 -p tcp -e 1040 -c 0 -i 17 -a 0 -x {0.0 2.0 -1 ------- null}
r -t 0.68472 -s 4 -d 0 -p ack -e 40 -c 0 -i 13 -a 0 -x {2.0 0.0 6 ------- null}
+ -t 0.68472 -s 0 -d 4 -p tcp -e 1040 -c 0 -i 20 -a 0 -x {0.0 2.0 13 ------- null}
+ -t 0.68472 -s 0 -d 4 -p tcp -e 1040 -c 0 -i 21 -a 0 -x {0.0 2.0 14 ------- null}
- -t 0.69304 -s 0 -d 4 -p tcp -e 1040 -c 0 -i 18 -a 0 -x {0.0 2.0 11 ------- null}
h -t 0.69304 -s 0 -d 4 -p tcp -e 1040 -c 0 -i 18 -a 0 -x {0.0 2.0 -1 ------- null}
- -t 0.70136 -s 0 -d 4 -p tcp -e 1040 -c 0 -i 19 -a 0 -x {0.0 2.0 12 ------- null}
h -t 0.70136 -s 0 -d 4 -p tcp -e 1040 -c 0 -i 19 -a 0 -x {0.0 2.0 -1 ------- null}
- -t 0.70968 -s 0 -d 4 -p tcp -e 1040 -c 0 -i 20 -a 0 -x {0.0 2.0 13 ------- null}
h -t 0.70968 -s 0 -d 4 -p tcp -e 1040 -c 0 -i 20 -a 0 -x {0.0 2.0 -1 ------- null}
- -t 0.718 -s 0 -d 4 -p tcp -e 1040 -c 0 -i 21 -a 0 -x {0.0 2.0 14 ------- null}
h -t 0.718 -s 0 -d 4 -p tcp -e 1040 -c 0 -i 21 -a 0 -x {0.0 2.0 -1 ------- null}
r -t 0.71808 -s 0 -d 4 -p tcp -e 1040 -c 0 -i 14 -a 0 -x {0.0 2.0 7 ------- null}
+ -t 0.71808 -s 4 -d 5 -p tcp -e 1040 -c 0 -i 14 -a 0 -x {0.0 2.0 7 ------- null}
- -t 0.71808 -s 4 -d 5 -p tcp -e 1040 -c 0 -i 14 -a 0 -x {0.0 2.0 7 ------- null}
h -t 0.71808 -s 4 -d 5 -p tcp -e 1040 -c 0 -i 14 -a 0 -x {0.0 2.0 -1 ------- null}
r -t 0.7264 -s 0 -d 4 -p tcp -e 1040 -c 0 -i 15 -a 0 -x {0.0 2.0 8 ------- null}
+ -t 0.7264 -s 4 -d 5 -p tcp -e 1040 -c 0 -i 15 -a 0 -x {0.0 2.0 8 ------- null}
- -t 0.7264 -s 4 -d 5 -p tcp -e 1040 -c 0 -i 15 -a 0 -x {0.0 2.0 8 ------- null}
h -t 0.7264 -s 4 -d 5 -p tcp -e 1040 -c 0 -i 15 -a 0 -x {0.0 2.0 -1 ------- null}
r -t 0.73472 -s 0 -d 4 -p tcp -e 1040 -c 0 -i 16 -a 0 -x {0.0 2.0 9 ------- null}
+ -t 0.73472 -s 4 -d 5 -p tcp -e 1040 -c 0 -i 16 -a 0 -x {0.0 2.0 9 ------- null}
- -t 0.73472 -s 4 -d 5 -p tcp -e 1040 -c 0 -i 16 -a 0 -x {0.0 2.0 9 ------- null}
h -t 0.73472 -s 4 -d 5 -p tcp -e 1040 -c 0 -i 16 -a 0 -x {0.0 2.0 -1 ------- null}
r -t 0.74304 -s 0 -d 4 -p tcp -e 1040 -c 0 -i 17 -a 0 -x {0.0 2.0 10 ------- null}
+ -t 0.74304 -s 4 -d 5 -p tcp -e 1040 -c 0 -i 17 -a 0 -x {0.0 2.0 10 ------- null}
- -t 0.74304 -s 4 -d 5 -p tcp -e 1040 -c 0 -i 17 -a 0 -x {0.0 2.0 10 ------- null}
h -t 0.74304 -s 4 -d 5 -p tcp -e 1040 -c 0 -i 17 -a 0 -x {0.0 2.0 -1 ------- null}
r -t 0.75136 -s 0 -d 4 -p tcp -e 1040 -c 0 -i 18 -a 0 -x {0.0 2.0 11 ------- null}
+ -t 0.75136 -s 4 -d 5 -p tcp -e 1040 -c 0 -i 18 -a 0 -x {0.0 2.0 11 ------- null}
- -t 0.75136 -s 4 -d 5 -p tcp -e 1040 -c 0 -i 18 -a 0 -x {0.0 2.0 11 ------- null}
h -t 0.75136 -s 4 -d 5 -p tcp -e 1040 -c 0 -i 18 -a 0 -x {0.0 2.0 -1 ------- null}
r -t 0.75968 -s 0 -d 4 -p tcp -e 1040 -c 0 -i 19 -a 0 -x {0.0 2.0 12 ------- null}
+ -t 0.75968 -s 4 -d 5 -p tcp -e 1040 -c 0 -i 19 -a 0 -x {0.0 2.0 12 ------- null}
- -t 0.75968 -s 4 -d 5 -p tcp -e 1040 -c 0 -i 19 -a 0 -x {0.0 2.0 12 ------- null}
h -t 0.75968 -s 4 -d 5 -p tcp -e 1040 -c 0 -i 19 -a 0 -x {0.0 2.0 -1 ------- null}
r -t 0.768 -s 0 -d 4 -p tcp -e 1040 -c 0 -i 20 -a 0 -x {0.0 2.0 13 ------- null}
+ -t 0.768 -s 4 -d 5 -p tcp -e 1040 -c 0 -i 20 -a 0 -x {0.0 2.0 13 ------- null}
- -t 0.768 -s 4 -d 5 -p tcp -e 1040 -c 0 -i 20 -a 0 -x {0.0 2.0 13 ------- null}
h -t 0.768 -s 4 -d 5 -p tcp -e 1040 -c 0 -i 20 -a 0 -x {0.0 2.0 -1 ------- null}
r -t 0.77632 -s 0 -d 4 -p tcp -e 1040 -c 0 -i 21 -a 0 -x {0.0 2.0 14 ------- null}
+ -t 0.77632 -s 4 -d 5 -p tcp -e 1040 -c 0 -i 21 -a 0 -x {0.0 2.0 14 ------- null}
- -t 0.77632 -s 4 -d 5 -p tcp -e 1040 -c 0 -i 21 -a 0 -x {0.0 2.0 14 ------- null}
h -t 0.77632 -s 4 -d 5 -p tcp -e 1040 -c 0 -i 21 -a 0 -x {0.0 2.0 -1 ------- null}
r -t 0.7764 -s 4 -d 5 -p tcp -e 1040 -c 0 -i 14 -a 0 -x {0.0 2.0 7 ------- null}
+ -t 0.7764 -s 5 -d 2 -p tcp -e 1040 -c 0 -i 14 -a 0 -x {0.0 2.0 7 ------- null}
- -t 0.7764 -s 5 -d 2 -p tcp -e 1040 -c 0 -i 14 -a 0 -x {0.0 2.0 7 ------- null}
h -t 0.7764 -s 5 -d 2 -p tcp -e 1040 -c 0 -i 14 -a 0 -x {0.0 2.0 -1 ------- null}
r -t 0.78472 -s 4 -d 5 -p tcp -e 1040 -c 0 -i 15 -a 0 -x {0.0 2.0 8 ------- null}
+ -t 0.78472 -s 5 -d 2 -p tcp -e 1040 -c 0 -i 15 -a 0 -x {0.0 2.0 8 ------- null}
- -t 0.78472 -s 5 -d 2 -p tcp -e 1040 -c 0 -i 15 -a 0 -x {0.0 2.0 8 ------- null}
h -t 0.78472 -s 5 -d 2 -p tcp -e 1040 -c 0 -i 15 -a 0 -x {0.0 2.0 -1 ------- null}
r -t 0.78572 -s 5 -d 2 -p tcp -e 1040 -c 0 -i 14 -a 0 -x {0.0 2.0 7 ------- null}
+ -t 0.78572 -s 2 -d 5 -p ack -e 40 -c 0 -i 22 -a 0 -x {2.0 0.0 7 ------- null}
- -t 0.78572 -s 2 -d 5 -p ack -e 40 -c 0 -i 22 -a 0 -x {2.0 0.0 7 ------- null}
h -t 0.78572 -s 2 -d 5 -p ack -e 40 -c 0 -i 22 -a 0 -x {2.0 0.0 -1 ------- null}
r -t 0.78704 -s 2 -d 5 -p ack -e 40 -c 0 -i 22 -a 0 -x {2.0 0.0 7 ------- null}
+ -t 0.78704 -s 5 -d 4 -p ack -e 40 -c 0 -i 22 -a 0 -x {2.0 0.0 7 ------- null}
- -t 0.78704 -s 5 -d 4 -p ack -e 40 -c 0 -i 22 -a 0 -x {2.0 0.0 7 ------- null}
h -t 0.78704 -s 5 -d 4 -p ack -e 40 -c 0 -i 22 -a 0 -x {2.0 0.0 -1 ------- null}
r -t 0.79304 -s 4 -d 5 -p tcp -e 1040 -c 0 -i 16 -a 0 -x {0.0 2.0 9 ------- null}
+ -t 0.79304 -s 5 -d 2 -p tcp -e 1040 -c 0 -i 16 -a 0 -x {0.0 2.0 9 ------- null}
- -t 0.79304 -s 5 -d 2 -p tcp -e 1040 -c 0 -i 16 -a 0 -x {0.0 2.0 9 ------- null}
h -t 0.79304 -s 5 -d 2 -p tcp -e 1040 -c 0 -i 16 -a 0 -x {0.0 2.0 -1 ------- null}
r -t 0.79404 -s 5 -d 2 -p tcp -e 1040 -c 0 -i 15 -a 0 -x {0.0 2.0 8 ------- null}
+ -t 0.79404 -s 2 -d 5 -p ack -e 40 -c 0 -i 23 -a 0 -x {2.0 0.0 8 ------- null}
- -t 0.79404 -s 2 -d 5 -p ack -e 40 -c 0 -i 23 -a 0 -x {2.0 0.0 8 ------- null}
h -t 0.79404 -s 2 -d 5 -p ack -e 40 -c 0 -i 23 -a 0 -x {2.0 0.0 -1 ------- null}
r -t 0.79536 -s 2 -d 5 -p ack -e 40 -c 0 -i 23 -a 0 -x {2.0 0.0 8 ------- null}
+ -t 0.79536 -s 5 -d 4 -p ack -e 40 -c 0 -i 23 -a 0 -x {2.0 0.0 8 ------- null}
- -t 0.79536 -s 5 -d 4 -p ack -e 40 -c 0 -i 23 -a 0 -x {2.0 0.0 8 ------- null}
h -t 0.79536 -s 5 -d 4 -p ack -e 40 -c 0 -i 23 -a 0 -x {2.0 0.0 -1 ------- null}
r -t 0.80136 -s 4 -d 5 -p tcp -e 1040 -c 0 -i 17 -a 0 -x {0.0 2.0 10 ------- null}
+ -t 0.80136 -s 5 -d 2 -p tcp -e 1040 -c 0 -i 17 -a 0 -x {0.0 2.0 10 ------- null}
- -t 0.80136 -s 5 -d 2 -p tcp -e 1040 -c 0 -i 17 -a 0 -x {0.0 2.0 10 ------- null}
h -t 0.80136 -s 5 -d 2 -p tcp -e 1040 -c 0 -i 17 -a 0 -x {0.0 2.0 -1 ------- null}
r -t 0.80236 -s 5 -d 2 -p tcp -e 1040 -c 0 -i 16 -a 0 -x {0.0 2.0 9 ------- null}
+ -t 0.80236 -s 2 -d 5 -p ack -e 40 -c 0 -i 24 -a 0 -x {2.0 0.0 9 ------- null}
- -t 0.80236 -s 2 -d 5 -p ack -e 40 -c 0 -i 24 -a 0 -x {2.0 0.0 9 ------- null}
h -t 0.80236 -s 2 -d 5 -p ack -e 40 -c 0 -i 24 -a 0 -x {2.0 0.0 -1 ------- null}
r -t 0.80368 -s 2 -d 5 -p ack -e 40 -c 0 -i 24 -a 0 -x {2.0 0.0 9 ------- null}
+ -t 0.80368 -s 5 -d 4 -p ack -e 40 -c 0 -i 24 -a 0 -x {2.0 0.0 9 ------- null}
- -t 0.80368 -s 5 -d 4 -p ack -e 40 -c 0 -i 24 -a 0 -x {2.0 0.0 9 ------- null}
h -t 0.80368 -s 5 -d 4 -p ack -e 40 -c 0 -i 24 -a 0 -x {2.0 0.0 -1 ------- null}
r -t 0.80968 -s 4 -d 5 -p tcp -e 1040 -c 0 -i 18 -a 0 -x {0.0 2.0 11 ------- null}
+ -t 0.80968 -s 5 -d 2 -p tcp -e 1040 -c 0 -i 18 -a 0 -x {0.0 2.0 11 ------- null}
- -t 0.80968 -s 5 -d 2 -p tcp -e 1040 -c 0 -i 18 -a 0 -x {0.0 2.0 11 ------- null}
h -t 0.80968 -s 5 -d 2 -p tcp -e 1040 -c 0 -i 18 -a 0 -x {0.0 2.0 -1 ------- null}
r -t 0.81068 -s 5 -d 2 -p tcp -e 1040 -c 0 -i 17 -a 0 -x {0.0 2.0 10 ------- null}
+ -t 0.81068 -s 2 -d 5 -p ack -e 40 -c 0 -i 25 -a 0 -x {2.0 0.0 10 ------- null}
- -t 0.81068 -s 2 -d 5 -p ack -e 40 -c 0 -i 25 -a 0 -x {2.0 0.0 10 ------- null}
h -t 0.81068 -s 2 -d 5 -p ack -e 40 -c 0 -i 25 -a 0 -x {2.0 0.0 -1 ------- null}
r -t 0.812 -s 2 -d 5 -p ack -e 40 -c 0 -i 25 -a 0 -x {2.0 0.0 10 ------- null}
+ -t 0.812 -s 5 -d 4 -p ack -e 40 -c 0 -i 25 -a 0 -x {2.0 0.0 10 ------- null}
- -t 0.812 -s 5 -d 4 -p ack -e 40 -c 0 -i 25 -a 0 -x {2.0 0.0 10 ------- null}
h -t 0.812 -s 5 -d 4 -p ack -e 40 -c 0 -i 25 -a 0 -x {2.0 0.0 -1 ------- null}
r -t 0.818 -s 4 -d 5 -p tcp -e 1040 -c 0 -i 19 -a 0 -x {0.0 2.0 12 ------- null}
+ -t 0.818 -s 5 -d 2 -p tcp -e 1040 -c 0 -i 19 -a 0 -x {0.0 2.0 12 ------- null}
- -t 0.818 -s 5 -d 2 -p tcp -e 1040 -c 0 -i 19 -a 0 -x {0.0 2.0 12 ------- null}
h -t 0.818 -s 5 -d 2 -p tcp -e 1040 -c 0 -i 19 -a 0 -x {0.0 2.0 -1 ------- null}
r -t 0.819 -s 5 -d 2 -p tcp -e 1040 -c 0 -i 18 -a 0 -x {0.0 2.0 11 ------- null}
+ -t 0.819 -s 2 -d 5 -p ack -e 40 -c 0 -i 26 -a 0 -x {2.0 0.0 11 ------- null}
- -t 0.819 -s 2 -d 5 -p ack -e 40 -c 0 -i 26 -a 0 -x {2.0 0.0 11 ------- null}
h -t 0.819 -s 2 -d 5 -p ack -e 40 -c 0 -i 26 -a 0 -x {2.0 0.0 -1 ------- null}
r -t 0.82032 -s 2 -d 5 -p ack -e 40 -c 0 -i 26 -a 0 -x {2.0 0.0 11 ------- null}
+ -t 0.82032 -s 5 -d 4 -p ack -e 40 -c 0 -i 26 -a 0 -x {2.0 0.0 11 ------- null}
- -t 0.82032 -s 5 -d 4 -p ack -e 40 -c 0 -i 26 -a 0 -x {2.0 0.0 11 ------- null}
h -t 0.82032 -s 5 -d 4 -p ack -e 40 -c 0 -i 26 -a 0 -x {2.0 0.0 -1 ------- null}
r -t 0.82632 -s 4 -d 5 -p tcp -e 1040 -c 0 -i 20 -a 0 -x {0.0 2.0 13 ------- null}
+ -t 0.82632 -s 5 -d 2 -p tcp -e 1040 -c 0 -i 20 -a 0 -x {0.0 2.0 13 ------- null}
- -t 0.82632 -s 5 -d 2 -p tcp -e 1040 -c 0 -i 20 -a 0 -x {0.0 2.0 13 ------- null}
h -t 0.82632 -s 5 -d 2 -p tcp -e 1040 -c 0 -i 20 -a 0 -x {0.0 2.0 -1 ------- null}
r -t 0.82732 -s 5 -d 2 -p tcp -e 1040 -c 0 -i 19 -a 0 -x {0.0 2.0 12 ------- null}
+ -t 0.82732 -s 2 -d 5 -p ack -e 40 -c 0 -i 27 -a 0 -x {2.0 0.0 12 ------- null}
- -t 0.82732 -s 2 -d 5 -p ack -e 40 -c 0 -i 27 -a 0 -x {2.0 0.0 12 ------- null}
h -t 0.82732 -s 2 -d 5 -p ack -e 40 -c 0 -i 27 -a 0 -x {2.0 0.0 -1 ------- null}
r -t 0.82864 -s 2 -d 5 -p ack -e 40 -c 0 -i 27 -a 0 -x {2.0 0.0 12 ------- null}
+ -t 0.82864 -s 5 -d 4 -p ack -e 40 -c 0 -i 27 -a 0 -x {2.0 0.0 12 ------- null}
- -t 0.82864 -s 5 -d 4 -p ack -e 40 -c 0 -i 27 -a 0 -x {2.0 0.0 12 ------- null}
h -t 0.82864 -s 5 -d 4 -p ack -e 40 -c 0 -i 27 -a 0 -x {2.0 0.0 -1 ------- null}
r -t 0.83464 -s 4 -d 5 -p tcp -e 1040 -c 0 -i 21 -a 0 -x {0.0 2.0 14 ------- null}
+ -t 0.83464 -s 5 -d 2 -p tcp -e 1040 -c 0 -i 21 -a 0 -x {0.0 2.0 14 ------- null}
- -t 0.83464 -s 5 -d 2 -p tcp -e 1040 -c 0 -i 21 -a 0 -x {0.0 2.0 14 ------- null}
h -t 0.83464 -s 5 -d 2 -p tcp -e 1040 -c 0 -i 21 -a 0 -x {0.0 2.0 -1 ------- null}
r -t 0.83564 -s 5 -d 2 -p tcp -e 1040 -c 0 -i 20 -a 0 -x {0.0 2.0 13 ------- null}
+ -t 0.83564 -s 2 -d 5 -p ack -e 40 -c 0 -i 28 -a 0 -x {2.0 0.0 13 ------- null}
- -t 0.83564 -s 2 -d 5 -p ack -e 40 -c 0 -i 28 -a 0 -x {2.0 0.0 13 ------- null}
h -t 0.83564 -s 2 -d 5 -p ack -e 40 -c 0 -i 28 -a 0 -x {2.0 0.0 -1 ------- null}
r -t 0.83696 -s 2 -d 5 -p ack -e 40 -c 0 -i 28 -a 0 -x {2.0 0.0 13 ------- null}
+ -t 0.83696 -s 5 -d 4 -p ack -e 40 -c 0 -i 28 -a 0 -x {2.0 0.0 13 ------- null}
- -t 0.83696 -s 5 -d 4 -p ack -e 40 -c 0 -i 28 -a 0 -x {2.0 0.0 13 ------- null}
h -t 0.83696 -s 5 -d 4 -p ack -e 40 -c 0 -i 28 -a 0 -x {2.0 0.0 -1 ------- null}
r -t 0.83736 -s 5 -d 4 -p ack -e 40 -c 0 -i 22 -a 0 -x {2.0 0.0 7 ------- null}
+ -t 0.83736 -s 4 -d 0 -p ack -e 40 -c 0 -i 22 -a 0 -x {2.0 0.0 7 ------- null}
- -t 0.83736 -s 4 -d 0 -p ack -e 40 -c 0 -i 22 -a 0 -x {2.0 0.0 7 ------- null}
h -t 0.83736 -s 4 -d 0 -p ack -e 40 -c 0 -i 22 -a 0 -x {2.0 0.0 -1 ------- null}
r -t 0.84396 -s 5 -d 2 -p tcp -e 1040 -c 0 -i 21 -a 0 -x {0.0 2.0 14 ------- null}
+ -t 0.84396 -s 2 -d 5 -p ack -e 40 -c 0 -i 29 -a 0 -x {2.0 0.0 14 ------- null}
- -t 0.84396 -s 2 -d 5 -p ack -e 40 -c 0 -i 29 -a 0 -x {2.0 0.0 14 ------- null}
h -t 0.84396 -s 2 -d 5 -p ack -e 40 -c 0 -i 29 -a 0 -x {2.0 0.0 -1 ------- null}
r -t 0.84528 -s 2 -d 5 -p ack -e 40 -c 0 -i 29 -a 0 -x {2.0 0.0 14 ------- null}
+ -t 0.84528 -s 5 -d 4 -p ack -e 40 -c 0 -i 29 -a 0 -x {2.0 0.0 14 ------- null}
- -t 0.84528 -s 5 -d 4 -p ack -e 40 -c 0 -i 29 -a 0 -x {2.0 0.0 14 ------- null}
h -t 0.84528 -s 5 -d 4 -p ack -e 40 -c 0 -i 29 -a 0 -x {2.0 0.0 -1 ------- null}
r -t 0.84568 -s 5 -d 4 -p ack -e 40 -c 0 -i 23 -a 0 -x {2.0 0.0 8 ------- null}
+ -t 0.84568 -s 4 -d 0 -p ack -e 40 -c 0 -i 23 -a 0 -x {2.0 0.0 8 ------- null}
- -t 0.84568 -s 4 -d 0 -p ack -e 40 -c 0 -i 23 -a 0 -x {2.0 0.0 8 ------- null}
h -t 0.84568 -s 4 -d 0 -p ack -e 40 -c 0 -i 23 -a 0 -x {2.0 0.0 -1 ------- null}
r -t 0.854 -s 5 -d 4 -p ack -e 40 -c 0 -i 24 -a 0 -x {2.0 0.0 9 ------- null}
+ -t 0.854 -s 4 -d 0 -p ack -e 40 -c 0 -i 24 -a 0 -x {2.0 0.0 9 ------- null}
- -t 0.854 -s 4 -d 0 -p ack -e 40 -c 0 -i 24 -a 0 -x {2.0 0.0 9 ------- null}
h -t 0.854 -s 4 -d 0 -p ack -e 40 -c 0 -i 24 -a 0 -x {2.0 0.0 -1 ------- null}
r -t 0.86232 -s 5 -d 4 -p ack -e 40 -c 0 -i 25 -a 0 -x {2.0 0.0 10 ------- null}
+ -t 0.86232 -s 4 -d 0 -p ack -e 40 -c 0 -i 25 -a 0 -x {2.0 0.0 10 ------- null}
- -t 0.86232 -s 4 -d 0 -p ack -e 40 -c 0 -i 25 -a 0 -x {2.0 0.0 10 ------- null}
h -t 0.86232 -s 4 -d 0 -p ack -e 40 -c 0 -i 25 -a 0 -x {2.0 0.0 -1 ------- null}
r -t 0.87064 -s 5 -d 4 -p ack -e 40 -c 0 -i 26 -a 0 -x {2.0 0.0 11 ------- null}
+ -t 0.87064 -s 4 -d 0 -p ack -e 40 -c 0 -i 26 -a 0 -x {2.0 0.0 11 ------- null}
- -t 0.87064 -s 4 -d 0 -p ack -e 40 -c 0 -i 26 -a 0 -x {2.0 0.0 11 ------- null}
h -t 0.87064 -s 4 -d 0 -p ack -e 40 -c 0 -i 26 -a 0 -x {2.0 0.0 -1 ------- null}
r -t 0.87896 -s 5 -d 4 -p ack -e 40 -c 0 -i 27 -a 0 -x {2.0 0.0 12 ------- null}
+ -t 0.87896 -s 4 -d 0 -p ack -e 40 -c 0 -i 27 -a 0 -x {2.0 0.0 12 ------- null}
- -t 0.87896 -s 4 -d 0 -p ack -e 40 -c 0 -i 27 -a 0 -x {2.0 0.0 12 ------- null}
h -t 0.87896 -s 4 -d 0 -p ack -e 40 -c 0 -i 27 -a 0 -x {2.0 0.0 -1 ------- null}
r -t 0.88728 -s 5 -d 4 -p ack -e 40 -c 0 -i 28 -a 0 -x {2.0 0.0 13 ------- null}
+ -t 0.88728 -s 4 -d 0 -p ack -e 40 -c 0 -i 28 -a 0 -x {2.0 0.0 13 ------- null}
- -t 0.88728 -s 4 -d 0 -p ack -e 40 -c 0 -i 28 -a 0 -x {2.0 0.0 13 ------- null}
h -t 0.88728 -s 4 -d 0 -p ack -e 40 -c 0 -i 28 -a 0 -x {2.0 0.0 -1 ------- null}
r -t 0.88768 -s 4 -d 0 -p ack -e 40 -c 0 -i 22 -a 0 -x {2.0 0.0 7 ------- null}
+ -t 0.88768 -s 0 -d 4 -p tcp -e 1040 -c 0 -i 30 -a 0 -x {0.0 2.0 15 ------- null}
- -t 0.88768 -s 0 -d 4 -p tcp -e 1040 -c 0 -i 30 -a 0 -x {0.0 2.0 15 ------- null}
h -t 0.88768 -s 0 -d 4 -p tcp -e 1040 -c 0 -i 30 -a 0 -x {0.0 2.0 -1 ------- null}
+ -t 0.88768 -s 0 -d 4 -p tcp -e 1040 -c 0 -i 31 -a 0 -x {0.0 2.0 16 ------- null}
r -t 0.8956 -s 5 -d 4 -p ack -e 40 -c 0 -i 29 -a 0 -x {2.0 0.0 14 ------- null}
+ -t 0.8956 -s 4 -d 0 -p ack -e 40 -c 0 -i 29 -a 0 -x {2.0 0.0 14 ------- null}
- -t 0.8956 -s 4 -d 0 -p ack -e 40 -c 0 -i 29 -a 0 -x {2.0 0.0 14 ------- null}
h -t 0.8956 -s 4 -d 0 -p ack -e 40 -c 0 -i 29 -a 0 -x {2.0 0.0 -1 ------- null}
r -t 0.896 -s 4 -d 0 -p ack -e 40 -c 0 -i 23 -a 0 -x {2.0 0.0 8 ------- null}
+ -t 0.896 -s 0 -d 4 -p tcp -e 1040 -c 0 -i 32 -a 0 -x {0.0 2.0 17 ------- null}
+ -t 0.896 -s 0 -d 4 -p tcp -e 1040 -c 0 -i 33 -a 0 -x {0.0 2.0 18 ------- null}
- -t 0.896 -s 0 -d 4 -p tcp -e 1040 -c 0 -i 31 -a 0 -x {0.0 2.0 16 ------- null}