V -t * -v 1.0a5 -a 0
A -t * -n 1 -p 0 -o 0x7fffffff -c 30 -a 1
A -t * -h 1 -m 1073741823 -s 0
n -t * -a 4 -s 4 -S UP -v circle -c black -i black
n -t * -a 0 -s 0 -S UP -v circle -c black -i black
n -t * -a 5 -s 5 -S UP -v circle -c black -i black
n -t * -a 1 -s 1 -S UP -v circle -c black -i black
n -t * -a 2 -s 2 -S UP -v circle -c black -i black
n -t * -a 3 -s 3 -S UP -v circle -c black -i black
l -t * -s 0 -d 4 -S UP -r 1000000 -D 0.050000000000000003 -c black
l -t * -s 1 -d 4 -S UP -r 1000000 -D 0.050000000000000003 -c black
l -t * -s 2 -d 5 -S UP -r 100000 -D 0.001 -c black
l -t * -s 3 -d 5 -S UP -r 1000000 -D 0.001 -c black
l -t * -s 4 -d 5 -S UP -r 1000000 -D 0.050000000000000003 -c black
q -t * -s 5 -d 2 -a 0
q -t * -s 2 -d 5 -a 0
+ -t 0 -s 0 -d 4 -p cbr -e 210 -c 0 -i 0 -a 0 -x {0.0 2.0 0 ------- null}
- -t 0 -s 0 -d 4 -p cbr -e 210 -c 0 -i 0 -a 0 -x {0.0 2.0 0 ------- null}
h -t 0 -s 0 -d 4 -p cbr -e 210 -c 0 -i 0 -a 0 -x {0.0 2.0 -1 ------- null}
+ -t 0.00375 -s 0 -d 4 -p cbr -e 210 -c 0 -i 1 -a 0 -x {0.0 2.0 1 ------- null}
- -t 0.00375 -s 0 -d 4 -p cbr -e 210 -c 0 -i 1 -a 0 -x {0.0 2.0 1 ------- null}
h -t 0.00375 -s 0 -d 4 -p cbr -e 210 -c 0 -i 1 -a 0 -x {0.0 2.0 -1 ------- null}
+ -t 0.0075 -s 0 -d 4 -p cbr -e 210 -c 0 -i 2 -a 0 -x {0.0 2.0 2 ------- null}
- -t 0.0075 -s 0 -d 4 -p cbr -e 210 -c 0 -i 2 -a 0 -x {0.0 2.0 2 ------- null}
h -t 0.0075 -s 0 -d 4 -p cbr -e 210 -c 0 -i 2 -a 0 -x {0.0 2.0 -1 ------- null}
+ -t 0.01125 -s 0 -d 4 -p cbr -e 210 -c 0 -i 3 -a 0 -x {0.0 2.0 3 ------- null}
- -t 0.01125 -s 0 -d 4 -p cbr -e 210 -c 0 -i 3 -a 0 -x {0.0 2.0 3 ------- null}
h -t 0.01125 -s 0 -d 4 -p cbr -e 210 -c 0 -i 3 -a 0 -x {0.0 2.0 -1 ------- null}
+ -t 0.015 -s 0 -d 4 -p cbr -e 210 -c 0 -i 4 -a 0 -x {0.0 2.0 4 ------- null}
- -t 0.015 -s 0 -d 4 -p cbr -e 210 -c 0 -i 4 -a 0 -x {0.0 2.0 4 ------- null}
h -t 0.015 -s 0 -d 4 -p cbr -e 210 -c 0 -i 4 -a 0 -x {0.0 2.0 -1 ------- null}
+ -t 0.01875 -s 0 -d 4 -p cbr -e 210 -c 0 -i 5 -a 0 -x {0.0 2.0 5 ------- null}
- -t 0.01875 -s 0 -d 4 -p cbr -e 210 -c 0 -i 5 -a 0 -x {0.0 2.0 5 ------- null}
h -t 0.01875 -s 0 -d 4 -p cbr -e 210 -c 0 -i 5 -a 0 -x {0.0 2.0 -1 ------- null}
+ -t 0.0225 -s 0 -d 4 -p cbr -e 210 -c 0 -i 6 -a 0 -x {0.0 2.0 6 ------- null}
- -t 0.0225 -s 0 -d 4 -p cbr -e 210 -c 0 -i 6 -a 0 -x {0.0 2.0 6 ------- null}
h -t 0.0225 -s 0 -d 4 -p cbr -e 210 -c 0 -i 6 -a 0 -x {0.0 2.0 -1 ------- null}
+ -t 0.02625 -s 0 -d 4 -p cbr -e 210 -c 0 -i 7 -a 0 -x {0.0 2.0 7 ------- null}
- -t 0.02625 -s 0 -d 4 -p cbr -e 210 -c 0 -i 7 -a 0 -x {0.0 2.0 7 ------- null}
h -t 0.02625 -s 0 -d 4 -p cbr -e 210 -c 0 -i 7 -a 0 -x {0.0 2.0 -1 ------- null}
+ -t 0.03 -s 0 -d 4 -p cbr -e 210 -c 0 -i 8 -a 0 -x {0.0 2.0 8 ------- null}
- -t 0.03 -s 0 -d 4 -p cbr -e 210 -c 0 -i 8 -a 0 -x {0.0 2.0 8 ------- null}
h -t 0.03 -s 0 -d 4 -p cbr -e 210 -c 0 -i 8 -a 0 -x {0.0 2.0 -1 ------- null}
+ -t 0.03375 -s 0 -d 4 -p cbr -e 210 -c 0 -i 9 -a 0 -x {0.0 2.0 9 ------- null}
- -t 0.03375 -s 0 -d 4 -p cbr -e 210 -c 0 -i 9 -a 0 -x {0.0 2.0 9 ------- null}
h -t 0.03375 -s 0 -d 4 -p cbr -e 210 -c 0 -i 9 -a 0 -x {0.0 2.0 -1 ------- null}
+ -t 0.0375 -s 0 -d 4 -p cbr -e 210 -c 0 -i 10 -a 0 -x {0.0 2.0 10 ------- null}
- -t 0.0375 -s 0 -d 4 -p cbr -e 210 -c 0 -i 10 -a 0 -x {0.0 2.0 10 ------- null}
h -t 0.0375 -s 0 -d 4 -p cbr -e 210 -c 0 -i 10 -a 0 -x {0.0 2.0 -1 ------- null}
+ -t 0.04125 -s 0 -d 4 -p cbr -e 210 -c 0 -i 11 -a 0 -x {0.0 2.0 11 ------- null}
- -t 0.04125 -s 0 -d 4 -p cbr -e 210 -c 0 -i 11 -a 0 -x {0.0 2.0 11 ------- null}
h -t 0.04125 -s 0 -d 4 -p cbr -e 210 -c 0 -i 11 -a 0 -x {0.0 2.0 -1 ------- null}
+ -t 0.045 -s 0 -d 4 -p cbr -e 210 -c 0 -i 12 -a 0 -x {0.0 2.0 12 ------- null}
- -t 0.045 -s 0 -d 4 -p cbr -e 210 -c 0 -i 12 -a 0 -x {0.0 2.0 12 ------- null}
h -t 0.045 -s 0 -d 4 -p cbr -e 210 -c 0 -i 12 -a 0 -x {0.0 2.0 -1 ------- null}
+ -t 0.04875 -s 0 -d 4 -p cbr -e 210 -c 0 -i 13 -a 0 -x {0.0 2.0 13 ------- null}
- -t 0.04875 -s 0 -d 4 -p cbr -e 210 -c 0 -i 13 -a 0 -x {0.0 2.0 13 ------- null}
h -t 0.04875 -s 0 -d 4 -p cbr -e 210 -c 0 -i 13 -a 0 -x {0.0 2.0 -1 ------- null}
r -t 0.05168 -s 0 -d 4 -p cbr -e 210 -c 0 -i 0 -a 0 -x {0.0 2.0 0 ------- null}
+ -t 0.05168 -s 4 -d 5 -p cbr -e 210 -c 0 -i 0 -a 0 -x {0.0 2.0 0 ------- null}
- -t 0.05168 -s 4 -d 5 -p cbr -e 210 -c 0 -i 0 -a 0 -x {0.0 2.0 0 ------- null}
h -t 0.05168 -s 4 -d 5 -p cbr -e 210 -c 0 -i 0 -a 0 -x {0.0 2.0 -1 ------- null}
+ -t 0.0525 -s 0 -d 4 -p cbr -e 210 -c 0 -i 14 -a 0 -x {0.0 2.0 14 ------- null}
- -t 0.0525 -s 0 -d 4 -p cbr -e 210 -c 0 -i 14 -a 0 -x {0.0 2.0 14 ------- null}
h -t 0.0525 -s 0 -d 4 -p cbr -e 210 -c 0 -i 14 -a 0 -x {0.0 2.0 -1 ------- null}
r -t 0.05543 -s 0 -d 4 -p cbr -e 210 -c 0 -i 1 -a 0 -x {0.0 2.0 1 ------- null}
+ -t 0.05543 -s 4 -d 5 -p cbr -e 210 -c 0 -i 1 -a 0 -x {0.0 2.0 1 ------- null}
- -t 0.05543 -s 4 -d 5 -p cbr -e 210 -c 0 -i 1 -a 0 -x {0.0 2.0 1 ------- null}
h -t 0.05543 -s 4 -d 5 -p cbr -e 210 -c 0 -i 1 -a 0 -x {0.0 2.0 -1 ------- null}
+ -t 0.05625 -s 0 -d 4 -p cbr -e 210 -c 0 -i 15 -a 0 -x {0.0 2.0 15 ------- null}
- -t 0.05625 -s 0 -d 4 -p cbr -e 210 -c 0 -i 15 -a 0 -x {0.0 2.0 15 ------- null}
h -t 0.05625 -s 0 -d 4 -p cbr -e 210 -c 0 -i 15 -a 0 -x {0.0 2.0 -1 ------- null}
r -t 0.05918 -s 0 -d 4 -p cbr -e 210 -c 0 -i 2 -a 0 -x {0.0 2.0 2 ------- null}
+ -t 0.05918 -s 4 -d 5 -p cbr -e 210 -c 0 -i 2 -a 0 -x {0.0 2.0 2 ------- null}
- -t 0.05918 -s 4 -d 5 -p cbr -e 210 -c 0 -i 2 -a 0 -x {0.0 2.0 2 ------- null}
h -t 0.05918 -s 4 -d 5 -p cbr -e 210 -c 0 -i 2 -a 0 -x {0.0 2.0 -1 ------- null}
+ -t 0.06 -s 0 -d 4 -p cbr -e 210 -c 0 -i 16 -a 0 -x {0.0 2.0 16 ------- null}
- -t 0.06 -s 0 -d 4 -p cbr -e 210 -c 0 -i 16 -a 0 -x {0.0 2.0 16 ------- null}
h -t 0.06 -s 0 -d 4 -p cbr -e 210 -c 0 -i 16 -a 0 -x {0.0 2.0 -1 ------- null}
r -t 0.06293 -s 0 -d 4 -p cbr -e 210 -c 0 -i 3 -a 0 -x {0.0 2.0 3 ------- null}
+ -t 0.06293 -s 4 -d 5 -p cbr -e 210 -c 0 -i 3 -a 0 -x {0.0 2.0 3 ------- null}
- -t 0.06293 -s 4 -d 5 -p cbr -e 210 -c 0 -i 3 -a 0 -x {0.0 2.0 3 ------- null}
h -t 0.06293 -s 4 -d 5 -p cbr -e 210 -c 0 -i 3 -a 0 -x {0.0 2.0 -1 ------- null}
+ -t 0.06375 -s 0 -d 4 -p cbr -e 210 -c 0 -i 17 -a 0 -x {0.0 2.0 17 ------- null}
- -t 0.06375 -s 0 -d 4 -p cbr -e 210 -c 0 -i 17 -a 0 -x {0.0 2.0 17 ------- null}
h -t 0.06375 -s 0 -d 4 -p cbr -e 210 -c 0 -i 17 -a 0 -x {0.0 2.0 -1 ------- null}
r -t 0.06668 -s 0 -d 4 -p cbr -e 210 -c 0 -i 4 -a 0 -x {0.0 2.0 4 ------- null}
+ -t 0.06668 -s 4 -d 5 -p cbr -e 210 -c 0 -i 4 -a 0 -x {0.0 2.0 4 ------- null}
- -t 0.06668 -s 4 -d 5 -p cbr -e 210 -c 0 -i 4 -a 0 -x {0.0 2.0 4 ------- null}
h -t 0.06668 -s 4 -d 5 -p cbr -e 210 -c 0 -i 4 -a 0 -x {0.0 2.0 -1 ------- null}
+ -t 0.0675 -s 0 -d 4 -p cbr -e 210 -c 0 -i 18 -a 0 -x {0.0 2.0 18 ------- null}
- -t 0.0675 -s 0 -d 4 -p cbr -e 210 -c 0 -i 18 -a 0 -x {0.0 2.0 18 ------- null}
h -t 0.0675 -s 0 -d 4 -p cbr -e 210 -c 0 -i 18 -a 0 -x {0.0 2.0 -1 ------- null}
r -t 0.07043 -s 0 -d 4 -p cbr -e 210 -c 0 -i 5 -a 0 -x {0.0 2.0 5 ------- null}
+ -t 0.07043 -s 4 -d 5 -p cbr -e 210 -c 0 -i 5 -a 0 -x {0.0 2.0 5 ------- null}
- -t 0.07043 -s 4 -d 5 -p cbr -e 210 -c 0 -i 5 -a 0 -x {0.0 2.0 5 ------- null}
h -t 0.07043 -s 4 -d 5 -p cbr -e 210 -c 0 -i 5 -a 0 -x {0.0 2.0 -1 ------- null}
+ -t 0.07125 -s 0 -d 4 -p cbr -e 210 -c 0 -i 19 -a 0 -x {0.0 2.0 19 ------- null}
- -t 0.07125 -s 0 -d 4 -p cbr -e 210 -c 0 -i 19 -a 0 -x {0.0 2.0 19 ------- null}
h -t 0.07125 -s 0 -d 4 -p cbr -e 210 -c 0 -i 19 -a 0 -x {0.0 2.0 -1 ------- null}
r -t 0.07418 -s 0 -d 4 -p cbr -e 210 -c 0 -i 6 -a 0 -x {0.0 2.0 6 ------- null}
+ -t 0.07418 -s 4 -d 5 -p cbr -e 210 -c 0 -i 6 -a 0 -x {0.0 2.0 6 ------- null}
- -t 0.07418 -s 4 -d 5 -p cbr -e 210 -c 0 -i 6 -a 0 -x {0.0 2.0 6 ------- null}
h -t 0.07418 -s 4 -d 5 -p cbr -e 210 -c 0 -i 6 -a 0 -x {0.0 2.0 -1 ------- null}
+ -t 0.075 -s 0 -d 4 -p cbr -e 210 -c 0 -i 20 -a 0 -x {0.0 2.0 20 ------- null}
- -t 0.075 -s 0 -d 4 -p cbr -e 210 -c 0 -i 20 -a 0 -x {0.0 2.0 20 ------- null}
h -t 0.075 -s 0 -d 4 -p cbr -e 210 -c 0 -i 20 -a 0 -x {0.0 2.0 -1 ------- null}
r -t 0.07793 -s 0 -d 4 -p cbr -e 210 -c 0 -i 7 -a 0 -x {0.0 2.0 7 ------- null}
+ -t 0.07793 -s 4 -d 5 -p cbr -e 210 -c 0 -i 7 -a 0 -x {0.0 2.0 7 ------- null}
- -t 0.07793 -s 4 -d 5 -p cbr -e 210 -c 0 -i 7 -a 0 -x {0.0 2.0 7 ------- null}
h -t 0.07793 -s 4 -d 5 -p cbr -e 210 -c 0 -i 7 -a 0 -x {0.0 2.0 -1 ------- null}
+ -t 0.07875 -s 0 -d 4 -p cbr -e 210 -c 0 -i 21 -a 0 -x {0.0 2.0 21 ------- null}
- -t 0.07875 -s 0 -d 4 -p cbr -e 210 -c 0 -i 21 -a 0 -x {0.0 2.0 21 ------- null}
h -t 0.07875 -s 0 -d 4 -p cbr -e 210 -c 0 -i 21 -a 0 -x {0.0 2.0 -1 ------- null}
r -t 0.08168 -s 0 -d 4 -p cbr -e 210 -c 0 -i 8 -a 0 -x {0.0 2.0 8 ------- null}
+ -t 0.08168 -s 4 -d 5 -p cbr -e 210 -c 0 -i 8 -a 0 -x {0.0 2.0 8 ------- null}
- -t 0.08168 -s 4 -d 5 -p cbr -e 210 -c 0 -i 8 -a 0 -x {0.0 2.0 8 ------- null}
h -t 0.08168 -s 4 -d 5 -p cbr -e 210 -c 0 -i 8 -a 0 -x {0.0 2.0 -1 ------- null}
+ -t 0.0825 -s 0 -d 4 -p cbr -e 210 -c 0 -i 22 -a 0 -x {0.0 2.0 22 ------- null}
- -t 0.0825 -s 0 -d 4 -p cbr -e 210 -c 0 -i 22 -a 0 -x {0.0 2.0 22 ------- null}
h -t 0.0825 -s 0 -d 4 -p cbr -e 210 -c 0 -i 22 -a 0 -x {0.0 2.0 -1 ------- null}
r -t 0.08543 -s 0 -d 4 -p cbr -e 210 -c 0 -i 9 -a 0 -x {0.0 2.0 9 ------- null}
+ -t 0.08543 -s 4 -d 5 -p cbr -e 210 -c 0 -i 9 -a 0 -x {0.0 2.0 9 ------- null}
- -t 0.08543 -s 4 -d 5 -p cbr -e 210 -c 0 -i 9 -a 0 -x {0.0 2.0 9 ------- null}
h -t 0.08543 -s 4 -d 5 -p cbr -e 210 -c 0 -i 9 -a 0 -x {0.0 2.0 -1 ------- null}
+ -t 0.08625 -s 0 -d 4 -p cbr -e 210 -c 0 -i 23 -a 0 -x {0.0 2.0 23 ------- null}
- -t 0.08625 -s 0 -d 4 -p cbr -e 210 -c 0 -i 23 -a 0 -x {0.0 2.0 23 ------- null}
h -t 0.08625 -s 0 -d 4 -p cbr -e 210 -c 0 -i 23 -a 0 -x {0.0 2.0 -1 ------- null}
r -t 0.08918 -s 0 -d 4 -p cbr -e 210 -c 0 -i 10 -a 0 -x {0.0 2.0 10 ------- null}
+ -t 0.08918 -s 4 -d 5 -p cbr -e 210 -c 0 -i 10 -a 0 -x {0.0 2.0 10 ------- null}
- -t 0.08918 -s 4 -d 5 -p cbr -e 210 -c 0 -i 10 -a 0 -x {0.0 2.0 10 ------- null}
h -t 0.08918 -s 4 -d 5 -p cbr -e 210 -c 0 -i 10 -a 0 -x {0.0 2.0 -1 ------- null}
+ -t 0.0900000000000001 -s 0 -d 4 -p cbr -e 210 -c 0 -i 24 -a 0 -x {0.0 2.0 24 ------- null}
- -t 0.0900000000000001 -s 0 -d 4 -p cbr -e 210 -c 0 -i 24 -a 0 -x {0.0 2.0 24 ------- null}
h -t 0.0900000000000001 -s 0 -d 4 -p cbr -e 210 -c 0 -i 24 -a 0 -x {0.0 2.0 -1 ------- null}
r -t 0.09293 -s 0 -d 4 -p cbr -e 210 -c 0 -i 11 -a 0 -x {0.0 2.0 11 ------- null}
+ -t 0.09293 -s 4 -d 5 -p cbr -e 210 -c 0 -i 11 -a 0 -x {0.0 2.0 11 ------- null}
- -t 0.09293 -s 4 -d 5 -p cbr -e 210 -c 0 -i 11 -a 0 -x {0.0 2.0 11 ------- null}
h -t 0.09293 -s 4 -d 5 -p cbr -e 210 -c 0 -i 11 -a 0 -x {0.0 2.0 -1 ------- null}
+ -t 0.0937500000000001 -s 0 -d 4 -p cbr -e 210 -c 0 -i 25 -a 0 -x {0.0 2.0 25 ------- null}
- -t 0.0937500000000001 -s 0 -d 4 -p cbr -e 210 -c 0 -i 25 -a 0 -x {0.0 2.0 25 ------- null}
h -t 0.0937500000000001 -s 0 -d 4 -p cbr -e 210 -c 0 -i 25 -a 0 -x {0.0 2.0 -1 ------- null}
r -t 0.09668 -s 0 -d 4 -p cbr -e 210 -c 0 -i 12 -a 0 -x {0.0 2.0 12 ------- null}
+ -t 0.09668 -s 4 -d 5 -p cbr -e 210 -c 0 -i 12 -a 0 -x {0.0 2.0 12 ------- null}
- -t 0.09668 -s 4 -d 5 -p cbr -e 210 -c 0 -i 12 -a 0 -x {0.0 2.0 12 ------- null}
h -t 0.09668 -s 4 -d 5 -p cbr -e 210 -c 0 -i 12 -a 0 -x {0.0 2.0 -1 ------- null}
+ -t 0.0975000000000001 -s 0 -d 4 -p cbr -e 210 -c 0 -i 26 -a 0 -x {0.0 2.0 26 ------- null}
- -t 0.0975000000000001 -s 0 -d 4 -p cbr -e 210 -c 0 -i 26 -a 0 -x {0.0 2.0 26 ------- null}
h -t 0.0975000000000001 -s 0 -d 4 -p cbr -e 210 -c 0 -i 26 -a 0 -x {0.0 2.0 -1 ------- null}
r -t 0.10043 -s 0 -d 4 -p cbr -e 210 -c 0 -i 13 -a 0 -x {0.0 2.0 13 ------- null}
+ -t 0.10043 -s 4 -d 5 -p cbr -e 210 -c 0 -i 13 -a 0 -x {0.0 2.0 13 ------- null}
- -t 0.10043 -s 4 -d 5 -p cbr -e 210 -c 0 -i 13 -a 0 -x {0.0 2.0 13 ------- null}
h -t 0.10043 -s 4 -d 5 -p cbr -e 210 -c 0 -i 13 -a 0 -x {0.0 2.0 -1 ------- null}
+ -t 0.10125 -s 0 -d 4 -p cbr -e 210 -c 0 -i 27 -a 0 -x {0.0 2.0 27 ------- null}
- -t 0.10125 -s 0 -d 4 -p cbr -e 210 -c 0 -i 27 -a 0 -x {0.0 2.0 27 ------- null}
h -t 0.10125 -s 0 -d 4 -p cbr -e 210 -c 0 -i 27 -a 0 -x {0.0 2.0 -1 ------- null}
r -t 0.10336 -s 4 -d 5 -p cbr -e 210 -c 0 -i 0 -a 0 -x {0.0 2.0 0 ------- null}
+ -t 0.10336 -s 5 -d 2 -p cbr -e 210 -c 0 -i 0 -a 0 -x {0.0 2.0 0 ------- null}
- -t 0.10336 -s 5 -d 2 -p cbr -e 210 -c 0 -i 0 -a 0 -x {0.0 2.0 0 ------- null}
h -t 0.10336 -s 5 -d 2 -p cbr -e 210 -c 0 -i 0 -a 0 -x {0.0 2.0 -1 ------- null}
r -t 0.10418 -s 0 -d 4 -p cbr -e 210 -c 0 -i 14 -a 0 -x {0.0 2.0 14 ------- null}
+ -t 0.10418 -s 4 -d 5 -p cbr -e 210 -c 0 -i 14 -a 0 -x {0.0 2.0 14 ------- null}
- -t 0.10418 -s 4 -d 5 -p cbr -e 210 -c 0 -i 14 -a 0 -x {0.0 2.0 14 ------- null}
h -t 0.10418 -s 4 -d 5 -p cbr -e 210 -c 0 -i 14 -a 0 -x {0.0 2.0 -1 ------- null}
+ -t 0.105 -s 0 -d 4 -p cbr -e 210 -c 0 -i 28 -a 0 -x {0.0 2.0 28 ------- null}
- -t 0.105 -s 0 -d 4 -p cbr -e 210 -c 0 -i 28 -a 0 -x {0.0 2.0 28 ------- null}
h -t 0.105 -s 0 -d 4 -p cbr -e 210 -c 0 -i 28 -a 0 -x {0.0 2.0 -1 ------- null}
r -t 0.10711 -s 4 -d 5 -p cbr -e 210 -c 0 -i 1 -a 0 -x {0.0 2.0 1 ------- null}
+ -t 0.10711 -s 5 -d 2 -p cbr -e 210 -c 0 -i 1 -a 0 -x {0.0 2.0 1 ------- null}
r -t 0.10793 -s 0 -d 4 -p cbr -e 210 -c 0 -i 15 -a 0 -x {0.0 2.0 15 ------- null}
+ -t 0.10793 -s 4 -d 5 -p cbr -e 210 -c 0 -i 15 -a 0 -x {0.0 2.0 15 ------- null}
- -t 0.10793 -s 4 -d 5 -p cbr -e 210 -c 0 -i 15 -a 0 -x {0.0 2.0 15 ------- null}
h -t 0.10793 -s 4 -d 5 -p cbr -e 210 -c 0 -i 15 -a 0 -x {0.0 2.0 -1 ------- null}
+ -t 0.10875 -s 0 -d 4 -p cbr -e 210 -c 0 -i 29 -a 0 -x {0.0 2.0 29 ------- null}
- -t 0.10875 -s 0 -d 4 -p cbr -e 210 -c 0 -i 29 -a 0 -x {0.0 2.0 29 ------- null}
h -t 0.10875 -s 0 -d 4 -p cbr -e 210 -c 0 -i 29 -a 0 -x {0.0 2.0 -1 ------- null}
r -t 0.11086 -s 4 -d 5 -p cbr -e 210 -c 0 -i 2 -a 0 -x {0.0 2.0 2 ------- null}
+ -t 0.11086 -s 5 -d 2 -p cbr -e 210 -c 0 -i 2 -a 0 -x {0.0 2.0 2 ------- null}
r -t 0.11168 -s 0 -d 4 -p cbr -e 210 -c 0 -i 16 -a 0 -x {0.0 2.0 16 ------- null}
+ -t 0.11168 -s 4 -d 5 -p cbr -e 210 -c 0 -i 16 -a 0 -x {0.0 2.0 16 ------- null}
- -t 0.11168 -s 4 -d 5 -p cbr -e 210 -c 0 -i 16 -a 0 -x {0.0 2.0 16 ------- null}
h -t 0.11168 -s 4 -d 5 -p cbr -e 210 -c 0 -i 16 -a 0 -x {0.0 2.0 -1 ------- null}
+ -t 0.1125 -s 0 -d 4 -p cbr -e 210 -c 0 -i 30 -a 0 -x {0.0 2.0 30 ------- null}
- -t 0.1125 -s 0 -d 4 -p cbr -e 210 -c 0 -i 30 -a 0 -x {0.0 2.0 30 ------- null}
h -t 0.1125 -s 0 -d 4 -p cbr -e 210 -c 0 -i 30 -a 0 -x {0.0 2.0 -1 ------- null}
r -t 0.11461 -s 4 -d 5 -p cbr -e 210 -c 0 -i 3 -a 0 -x {0.0 2.0 3 ------- null}
+ -t 0.11461 -s 5 -d 2 -p cbr -e 210 -c 0 -i 3 -a 0 -x {0.0 2.0 3 ------- null}
r -t 0.11543 -s 0 -d 4 -p cbr -e 210 -c 0 -i 17 -a 0 -x {0.0 2.0 17 ------- null}
+ -t 0.11543 -s 4 -d 5 -p cbr -e 210 -c 0 -i 17 -a 0 -x {0.0 2.0 17 ------- null}
- -t 0.11543 -s 4 -d 5 -p cbr -e 210 -c 0 -i 17 -a 0 -x {0.0 2.0 17 ------- null}
h -t 0.11543 -s 4 -d 5 -p cbr -e 210 -c 0 -i 17 -a 0 -x {0.0 2.0 -1 ------- null}
+ -t 0.11625 -s 0 -d 4 -p cbr -e 210 -c 0 -i 31 -a 0 -x {0.0 2.0 31 ------- null}
- -t 0.11625 -s 0 -d 4 -p cbr -e 210 -c 0 -i 31 -a 0 -x {0.0 2.0 31 ------- null}
h -t 0.11625 -s 0 -d 4 -p cbr -e 210 -c 0 -i 31 -a 0 -x {0.0 2.0 -1 ------- null}
r -t 0.11836 -s 4 -d 5 -p cbr -e 210 -c 0 -i 4 -a 0 -x {0.0 2.0 4 ------- null}
+ -t 0.11836 -s 5 -d 2 -p cbr -e 210 -c 0 -i 4 -a 0 -x {0.0 2.0 4 ------- null}
r -t 0.11918 -s 0 -d 4 -p cbr -e 210 -c 0 -i 18 -a 0 -x {0.0 2.0 18 ------- null}
+ -t 0.11918 -s 4 -d 5 -p cbr -e 210 -c 0 -i 18 -a 0 -x {0.0 2.0 18 ------- null}
- -t 0.11918 -s 4 -d 5 -p cbr -e 210 -c 0 -i 18 -a 0 -x {0.0 2.0 18 ------- null}
h -t 0.11918 -s 4 -d 5 -p cbr -e 210 -c 0 -i 18 -a 0 -x {0.0 2.0 -1 ------- null}
+ -t 0.12 -s 0 -d 4 -p cbr -e 210 -c 0 -i 32 -a 0 -x {0.0 2.0 32 ------- null}
- -t 0.12 -s 0 -d 4 -p cbr -e 210 -c 0 -i 32 -a 0 -x {0.0 2.0 32 ------- null}
h -t 0.12 -s 0 -d 4 -p cbr -e 210 -c 0 -i 32 -a 0 -x {0.0 2.0 -1 ------- null}
- -t 0.12016 -s 5 -d 2 -p cbr -e 210 -c 0 -i 1 -a 0 -x {0.0 2.0 1 ------- null}
h -t 0.12016 -s 5 -d 2 -p cbr -e 210 -c 0 -i 1 -a 0 -x {0.0 2.0 -1 ------- null}
r -t 0.12116 -s 5 -d 2 -p cbr -e 210 -c 0 -i 0 -a 0 -x {0.0 2.0 0 ------- null}
r -t 0.12211 -s 4 -d 5 -p cbr -e 210 -c 0 -i 5 -a 0 -x {0.0 2.0 5 ------- null}
+ -t 0.12211 -s 5 -d 2 -p cbr -e 210 -c 0 -i 5 -a 0 -x {0.0 2.0 5 ------- null}
r -t 0.12293 -s 0 -d 4 -p cbr -e 210 -c 0 -i 19 -a 0 -x {0.0 2.0 19 ------- null}
+ -t 0.12293 -s 4 -d 5 -p cbr -e 210 -c 0 -i 19 -a 0 -x {0.0 2.0 19 ------- null}
- -t 0.12293 -s 4 -d 5 -p cbr -e 210 -c 0 -i 19 -a 0 -x {0.0 2.0 19 ------- null}
h -t 0.12293 -s 4 -d 5 -p cbr -e 210 -c 0 -i 19 -a 0 -x {0.0 2.0 -1 ------- null}
+ -t 0.12375 -s 0 -d 4 -p cbr -e 210 -c 0 -i 33 -a 0 -x {0.0 2.0 33 ------- null}
- -t 0.12375 -s 0 -d 4 -p cbr -e 210 -c 0 -i 33 -a 0 -x {0.0 2.0 33 ------- null}
h -t 0.12375 -s 0 -d 4 -p cbr -e 210 -c 0 -i 33 -a 0 -x {0.0 2.0 -1 ------- null}
r -t 0.12586 -s 4 -d 5 -p cbr -e 210 -c 0 -i 6 -a 0 -x {0.0 2.0 6 ------- null}
+ -t 0.12586 -s 5 -d 2 -p cbr -e 210 -c 0 -i 6 -a 0 -x {0.0 2.0 6 ------- null}
r -t 0.12668 -s 0 -d 4 -p cbr -e 210 -c 0 -i 20 -a 0 -x {0.0 2.0 20 ------- null}
+ -t 0.12668 -s 4 -d 5 -p cbr -e 210 -c 0 -i 20 -a 0 -x {0.0 2.0 20 ------- null}
- -t 0.12668 -s 4 -d 5 -p cbr -e 210 -c 0 -i 20 -a 0 -x {0.0 2.0 20 ------- null}
h -t 0.12668 -s 4 -d 5 -p cbr -e 210 -c 0 -i 20 -a 0 -x {0.0 2.0 -1 ------- null}
+ -t 0.1275 -s 0 -d 4 -p cbr -e 210 -c 0 -i 34 -a 0 -x {0.0 2.0 34 ------- null}
- -t 0.1275 -s 0 -d 4 -p cbr -e 210 -c 0 -i 34 -a 0 -x {0.0 2.0 34 ------- null}
h -t 0.1275 -s 0 -d 4 -p cbr -e 210 -c 0 -i 34 -a 0 -x {0.0 2.0 -1 ------- null}
r -t 0.12961 -s 4 -d 5 -p cbr -e 210 -c 0 -i 7 -a 0 -x {0.0 2.0 7 ------- null}
+ -t 0.12961 -s 5 -d 2 -p cbr -e 210 -c 0 -i 7 -a 0 -x {0.0 2.0 7 ------- null}
r -t 0.13043 -s 0 -d 4 -p cbr -e 210 -c 0 -i 21 -a 0 -x {0.0 2.0 21 ------- null}
+ -t 0.13043 -s 4 -d 5 -p cbr -e 210 -c 0 -i 21 -a 0 -x {0.0 2.0 21 ------- null}
- -t 0.13043 -s 4 -d 5 -p cbr -e 210 -c 0 -i 21 -a 0 -x {0.0 2.0 21 ------- null}
h -t 0.13043 -s 4 -d 5 -p cbr -e 210 -c 0 -i 21 -a 0 -x {0.0 2.0 -1 ------- null}
+ -t 0.13125 -s 0 -d 4 -p cbr -e 210 -c 0 -i 35 -a 0 -x {0.0 2.0 35 ------- null}
- -t 0.13125 -s 0 -d 4 -p cbr -e 210 -c 0 -i 35 -a 0 -x {0.0 2.0 35 ------- null}
h -t 0.13125 -s 0 -d 4 -p cbr -e 210 -c 0 -i 35 -a 0 -x {0.0 2.0 -1 ------- null}
r -t 0.13336 -s 4 -d 5 -p cbr -e 210 -c 0 -i 8 -a 0 -x {0.0 2.0 8 ------- null}
+ -t 0.13336 -s 5 -d 2 -p cbr -e 210 -c 0 -i 8 -a 0 -x {0.0 2.0 8 ------- null}
r -t 0.13418 -s 0 -d 4 -p cbr -e 210 -c 0 -i 22 -a 0 -x {0.0 2.0 22 ------- null}
+ -t 0.13418 -s 4 -d 5 -p cbr -e 210 -c 0 -i 22 -a 0 -x {0.0 2.0 22 ------- null}
- -t 0.13418 -s 4 -d 5 -p cbr -e 210 -c 0 -i 22 -a 0 -x {0.0 2.0 22 ------- null}
h -t 0.13418 -s 4 -d 5 -p cbr -e 210 -c 0 -i 22 -a 0 -x {0.0 2.0 -1 ------- null}
+ -t 0.135 -s 0 -d 4 -p cbr -e 210 -c 0 -i 36 -a 0 -x {0.0 2.0 36 ------- null}
- -t 0.135 -s 0 -d 4 -p cbr -e 210 -c 0 -i 36 -a 0 -x {0.0 2.0 36 ------- null}
h -t 0.135 -s 0 -d 4 -p cbr -e 210 -c 0 -i 36 -a 0 -x {0.0 2.0 -1 ------- null}
- -t 0.13696 -s 5 -d 2 -p cbr -e 210 -c 0 -i 2 -a 0 -x {0.0 2.0 2 ------- null}
h -t 0.13696 -s 5 -d 2 -p cbr -e 210 -c 0 -i 2 -a 0 -x {0.0 2.0 -1 ------- null}
r -t 0.13711 -s 4 -d 5 -p cbr -e 210 -c 0 -i 9 -a 0 -x {0.0 2.0 9 ------- null}
+ -t 0.13711 -s 5 -d 2 -p cbr -e 210 -c 0 -i 9 -a 0 -x {0.0 2.0 9 ------- null}
r -t 0.13793 -s 0 -d 4 -p cbr -e 210 -c 0 -i 23 -a 0 -x {0.0 2.0 23 ------- null}
+ -t 0.13793 -s 4 -d 5 -p cbr -e 210 -c 0 -i 23 -a 0 -x {0.0 2.0 23 ------- null}
- -t 0.13793 -s 4 -d 5 -p cbr -e 210 -c 0 -i 23 -a 0 -x {0.0 2.0 23 ------- null}
h -t 0.13793 -s 4 -d 5 -p cbr -e 210 -c 0 -i 23 -a 0 -x {0.0 2.0 -1 ------- null}
r -t 0.13796 -s 5 -d 2 -p cbr -e 210 -c 0 -i 1 -a 0 -x {0.0 2.0 1 ------- null}
+ -t 0.13875 -s 0 -d 4 -p cbr -e 210 -c 0 -i 37 -a 0 -x {0.0 2.0 37 ------- null}
- -t 0.13875 -s 0 -d 4 -p cbr -e 210 -c 0 -i 37 -a 0 -x {0.0 2.0 37 ------- null}
h -t 0.13875 -s 0 -d 4 -p cbr -e 210 -c 0 -i 37 -a 0 -x {0.0 2.0 -1 ------- null}
r -t 0.14086 -s 4 -d 5 -p cbr -e 210 -c 0 -i 10 -a 0 -x {0.0 2.0 10 ------- null}
+ -t 0.14086 -s 5 -d 2 -p cbr -e 210 -c 0 -i 10 -a 0 -x {0.0 2.0 10 ------- null}
r -t 0.14168 -s 0 -d 4 -p cbr -e 210 -c 0 -i 24 -a 0 -x {0.0 2.0 24 ------- null}
+ -t 0.14168 -s 4 -d 5 -p cbr -e 210 -c 0 -i 24 -a 0 -x {0.0 2.0 24 ------- null}
- -t 0.14168 -s 4 -d 5 -p cbr -e 210 -c 0 -i 24 -a 0 -x {0.0 2.0 24 ------- null}
h -t 0.14168 -s 4 -d 5 -p cbr -e 210 -c 0 -i 24 -a 0 -x {0.0 2.0 -1 ------- null}
+ -t 0.1425 -s 0 -d 4 -p cbr -e 210 -c 0 -i 38 -a 0 -x {0.0 2.0 38 ------- null}
- -t 0.1425 -s 0 -d 4 -p cbr -e 210 -c 0 -i 38 -a 0 -x {0.0 2.0 38 ------- null}
h -t 0.1425 -s 0 -d 4 -p cbr -e 210 -c 0 -i 38 -a 0 -x {0.0 2.0 -1 ------- null}
r -t 0.14461 -s 4 -d 5 -p cbr -e 210 -c 0 -i 11 -a 0 -x {0.0 2.0 11 ------- null}
+ -t 0.14461 -s 5 -d 2 -p cbr -e 210 -c 0 -i 11 -a 0 -x {0.0 2.0 11 ------- null}
r -t 0.14543 -s 0 -d 4 -p cbr -e 210 -c 0 -i 25 -a 0 -x {0.0 2.0 25 ------- null}
+ -t 0.14543 -s 4 -d 5 -p cbr -e 210 -c 0 -i 25 -a 0 -x {0.0 2.0 25 ------- null}
- -t 0.14543 -s 4 -d 5 -p cbr -e 210 -c 0 -i 25 -a 0 -x {0.0 2.0 25 ------- null}
h -t 0.14543 -s 4 -d 5 -p cbr -e 210 -c 0 -i 25 -a 0 -x {0.0 2.0 -1 ------- null}
+ -t 0.14625 -s 0 -d 4 -p cbr -e 210 -c 0 -i 39 -a 0 -x {0.0 2.0 39 ------- null}
- -t 0.14625 -s 0 -d 4 -p cbr -e 210 -c 0 -i 39 -a 0 -x {0.0 2.0 39 ------- null}
h -t 0.14625 -s 0 -d 4 -p cbr -e 210 -c 0 -i 39 -a 0 -x {0.0 2.0 -1 ------- null}
r -t 0.14836 -s 4 -d 5 -p cbr -e 210 -c 0 -i 12 -a 0 -x {0.0 2.0 12 ------- null}
+ -t 0.14836 -s 5 -d 2 -p cbr -e 210 -c 0 -i 12 -a 0 -x {0.0 2.0 12 ------- null}
r -t 0.14918 -s 0 -d 4 -p cbr -e 210 -c 0 -i 26 -a 0 -x {0.0 2.0 26 ------- null}
+ -t 0.14918 -s 4 -d 5 -p cbr -e 210 -c 0 -i 26 -a 0 -x {0.0 2.0 26 ------- null}
- -t 0.14918 -s 4 -d 5 -p cbr -e 210 -c 0 -i 26 -a 0 -x {0.0 2.0 26 ------- null}
h -t 0.14918 -s 4 -d 5 -p cbr -e 210 -c 0 -i 26 -a 0 -x {0.0 2.0 -1 ------- null}
+ -t 0.15 -s 0 -d 4 -p cbr -e 210 -c 0 -i 40 -a 0 -x {0.0 2.0 40 ------- null}
- -t 0.15 -s 0 -d 4 -p cbr -e 210 -c 0 -i 40 -a 0 -x {0.0 2.0 40 ------- null}
h -t 0.15 -s 0 -d 4 -p cbr -e 210 -c 0 -i 40 -a 0 -x {0.0 2.0 -1 ------- null}
r -t 0.15211 -s 4 -d 5 -p cbr -e 210 -c 0 -i 13 -a 0 -x {0.0 2.0 13 ------- null}
+ -t 0.15211 -s 5 -d 2 -p cbr -e 210 -c 0 -i 13 -a 0 -x {0.0 2.0 13 ------- null}
r -t 0.15293 -s 0 -d 4 -p cbr -e 210 -c 0 -i 27 -a 0 -x {0.0 2.0 27 ------- null}
+ -t 0.15293 -s 4 -d 5 -p cbr -e 210 -c 0 -i 27 -a 0 -x {0.0 2.0 27 ------- null}
- -t 0.15293 -s 4 -d 5 -p cbr -e 210 -c 0 -i 27 -a 0 -x {0.0 2.0 27 ------- null}
h -t 0.15293 -s 4 -d 5 -p cbr -e 210 -c 0 -i 27 -a 0 -x {0.0 2.0 -1 ------- null}
+ -t 0.15375 -s 0 -d 4 -p cbr -e 210 -c 0 -i 41 -a 0 -x {0.0 2.0 41 ------- null}
- -t 0.15375 -s 0 -d 4 -p cbr -e 210 -c 0 -i 41 -a 0 -x {0.0 2.0 41 ------- null}
h -t 0.15375 -s 0 -d 4 -p cbr -e 210 -c 0 -i 41 -a 0 -x {0.0 2.0 -1 ------- null}
- -t 0.15376 -s 5 -d 2 -p cbr -e 210 -c 0 -i 3 -a 0 -x {0.0 2.0 3 ------- null}
h -t 0.15376 -s 5 -d 2 -p cbr -e 210 -c 0 -i 3 -a 0 -x {0.0 2.0 -1 ------- null}
r -t 0.15476 -s 5 -d 2 -p cbr -e 210 -c 0 -i 2 -a 0 -x {0.0 2.0 2 ------- null}
r -t 0.15586 -s 4 -d 5 -p cbr -e 210 -c 0 -i 14 -a 0 -x {0.0 2.0 14 ------- null}
+ -t 0.15586 -s 5 -d 2 -p cbr -e 210 -c 0 -i 14 -a 0 -x {0.0 2.0 14 ------- null}
r -t 0.15668 -s 0 -d 4 -p cbr -e 210 -c 0 -i 28 -a 0 -x {0.0 2.0 28 ------- null}
+ -t 0.15668 -s 4 -d 5 -p cbr -e 210 -c 0 -i 28 -a 0 -x {0.0 2.0 28 ------- null}
- -t 0.15668 -s 4 -d 5 -p cbr -e 210 -c 0 -i 28 -a 0 -x {0.0 2.0 28 ------- null}
h -t 0.15668 -s 4 -d 5 -p cbr -e 210 -c 0 -i 28 -a 0 -x {0.0 2.0 -1 ------- null}
+ -t 0.1575 -s 0 -d 4 -p cbr -e 210 -c 0 -i 42 -a 0 -x {0.0 2.0 42 ------- null}
- -t 0.1575 -s 0 -d 4 -p cbr -e 210 -c 0 -i 42 -a 0 -x {0.0 2.0 42 ------- null}
h -t 0.1575 -s 0 -d 4 -p cbr -e 210 -c 0 -i 42 -a 0 -x {0.0 2.0 -1 ------- null}
r -t 0.15961 -s 4 -d 5 -p cbr -e 210 -c 0 -i 15 -a 0 -x {0.0 2.0 15 ------- null}
+ -t 0.15961 -s 5 -d 2 -p cbr -e 210 -c 0 -i 15 -a 0 -x {0.0 2.0 15 ------- null}
r -t 0.16043 -s 0 -d 4 -p cbr -e 210 -c 0 -i 29 -a 0 -x {0.0 2.0 29 ------- null}
+ -t 0.16043 -s 4 -d 5 -p cbr -e 210 -c 0 -i 29 -a 0 -x {0.0 2.0 29 ------- null}
- -t 0.16043 -s 4 -d 5 -p cbr -e 210 -c 0 -i 29 -a 0 -x {0.0 2.0 29 ------- null}
h -t 0.16043 -s 4 -d 5 -p cbr -e 210 -c 0 -i 29 -a 0 -x {0.0 2.0 -1 ------- null}
+ -t 0.16125 -s 0 -d 4 -p cbr -e 210 -c 0 -i 43 -a 0 -x {0.0 2.0 43 ------- null}
- -t 0.16125 -s 0 -d 4 -p cbr -e 210 -c 0 -i 43 -a 0 -x {0.0 2.0 43 ------- null}
h -t 0.16125 -s 0 -d 4 -p cbr -e 210 -c 0 -i 43 -a 0 -x {0.0 2.0 -1 ------- null}
r -t 0.16336 -s 4 -d 5 -p cbr -e 210 -c 0 -i 16 -a 0 -x {0.0 2.0 16 ------- null}
+ -t 0.16336 -s 5 -d 2 -p cbr -e 210 -c 0 -i 16 -a 0 -x {0.0 2.0 16 ------- null}
r -t 0.16418 -s 0 -d 4 -p cbr -e 210 -c 0 -i 30 -a 0 -x {0.0 2.0 30 ------- null}
+ -t 0.16418 -s 4 -d 5 -p cbr -e 210 -c 0 -i 30 -a 0 -x {0.0 2.0 30 ------- null}
- -t 0.16418 -s 4 -d 5 -p cbr -e 210 -c 0 -i 30 -a 0 -x {0.0 2.0 30 ------- null}
h -t 0.16418 -s 4 -d 5 -p cbr -e 210 -c 0 -i 30 -a 0 -x {0.0 2.0 -1 ------- null}
+ -t 0.165 -s 0 -d 4 -p cbr -e 210 -c 0 -i 44 -a 0 -x {0.0 2.0 44 ------- null}
- -t 0.165 -s 0 -d 4 -p cbr -e 210 -c 0 -i 44 -a 0 -x {0.0 2.0 44 ------- null}
h -t 0.165 -s 0 -d 4 -p cbr -e 210 -c 0 -i 44 -a 0 -x {0.0 2.0 -1 ------- null}
r -t 0.16711 -s 4 -d 5 -p cbr -e 210 -c 0 -i 17 -a 0 -x {0.0 2.0 17 ------- null}
+ -t 0.16711 -s 5 -d 2 -p cbr -e 210 -c 0 -i 17 -a 0 -x {0.0 2.0 17 ------- null}
r -t 0.16793 -s 0 -d 4 -p cbr -e 210 -c 0 -i 31 -a 0 -x {0.0 2.0 31 ------- null}
+ -t 0.16793 -s 4 -d 5 -p cbr -e 210 -c 0 -i 31 -a 0 -x {0.0 2.0 31 ------- null}
- -t 0.16793 -s 4 -d 5 -p cbr -e 210 -c 0 -i 31 -a 0 -x {0.0 2.0 31 ------- null}
h -t 0.16793 -s 4 -d 5 -p cbr -e 210 -c 0 -i 31 -a 0 -x {0.0 2.0 -1 ------- null}
+ -t 0.16875 -s 0 -d 4 -p cbr -e 210 -c 0 -i 45 -a 0 -x {0.0 2.0 45 ------- null}
- -t 0.16875 -s 0 -d 4 -p cbr -e 210 -c 0 -i 45 -a 0 -x {0.0 2.0 45 ------- null}
h -t 0.16875 -s 0 -d 4 -p cbr -e 210 -c 0 -i 45 -a 0 -x {0.0 2.0 -1 ------- null}
- -t 0.17056 -s 5 -d 2 -p cbr -e 210 -c 0 -i 4 -a 0 -x {0.0 2.0 4 ------- null}
h -t 0.17056 -s 5 -d 2 -p cbr -e 210 -c 0 -i 4 -a 0 -x {0.0 2.0 -1 ------- null}
r -t 0.17086 -s 4 -d 5 -p cbr -e 210 -c 0 -i 18 -a 0 -x {0.0 2.0 18 ------- null}
+ -t 0.17086 -s 5 -d 2 -p cbr -e 210 -c 0 -i 18 -a 0 -x {0.0 2.0 18 ------- null}
r -t 0.17156 -s 5 -d 2 -p cbr -e 210 -c 0 -i 3 -a 0 -x {0.0 2.0 3 ------- null}
r -t 0.17168 -s 0 -d 4 -p cbr -e 210 -c 0 -i 32 -a 0 -x {0.0 2.0 32 ------- null}
+ -t 0.17168 -s 4 -d 5 -p cbr -e 210 -c 0 -i 32 -a 0 -x {0.0 2.0 32 ------- null}
- -t 0.17168 -s 4 -d 5 -p cbr -e 210 -c 0 -i 32 -a 0 -x {0.0 2.0 32 ------- null}
h -t 0.17168 -s 4 -d 5 -p cbr -e 210 -c 0 -i 32 -a 0 -x {0.0 2.0 -1 ------- null}
+ -t 0.1725 -s 0 -d 4 -p cbr -e 210 -c 0 -i 46 -a 0 -x {0.0 2.0 46 ------- null}
- -t 0.1725 -s 0 -d 4 -p cbr -e 210 -c 0 -i 46 -a 0 -x {0.0 2.0 46 ------- null}
h -t 0.1725 -s 0 -d 4 -p cbr -e 210 -c 0 -i 46 -a 0 -x {0.0 2.0 -1 ------- null}
r -t 0.17461 -s 4 -d 5 -p cbr -e 210 -c 0 -i 19 -a 0 -x {0.0 2.0 19 ------- null}
+ -t 0.17461 -s 5 -d 2 -p cbr -e 210 -c 0 -i 19 -a 0 -x {0.0 2.0 19 ------- null}
r -t 0.17543 -s 0 -d 4 -p cbr -e 210 -c 0 -i 33 -a 0 -x {0.0 2.0 33 ------- null}
+ -t 0.17543 -s 4 -d 5 -p cbr -e 210 -c 0 -i 33 -a 0 -x {0.0 2.0 33 ------- null}
- -t 0.17543 -s 4 -d 5 -p cbr -e 210 -c 0 -i 33 -a 0 -x {0.0 2.0 33 ------- null}
h -t 0.17543 -s 4 -d 5 -p cbr -e 210 -c 0 -i 33 -a 0 -x {0.0 2.0 -1 ------- null}
+ -t 0.17625 -s 0 -d 4 -p cbr -e 210 -c 0 -i 47 -a 0 -x {0.0 2.0 47 ------- null}
- -t 0.17625 -s 0 -d 4 -p cbr -e 210 -c 0 -i 47 -a 0 -x {0.0 2.0 47 ------- null}
h -t 0.17625 -s 0 -d 4 -p cbr -e 210 -c 0 -i 47 -a 0 -x {0.0 2.0 -1 ------- null}
r -t 0.17836 -s 4 -d 5 -p cbr -e 210 -c 0 -i 20 -a 0 -x {0.0 2.0 20 ------- null}
+ -t 0.17836 -s 5 -d 2 -p cbr -e 210 -c 0 -i 20 -a 0 -x {0.0 2.0 20 ------- null}
r -t 0.17918 -s 0 -d 4 -p cbr -e 210 -c 0 -i 34 -a 0 -x {0.0 2.0 34 ------- null}
+ -t 0.17918 -s 4 -d 5 -p cbr -e 210 -c 0 -i 34 -a 0 -x {0.0 2.0 34 ------- null}
- -t 0.17918 -s 4 -d 5 -p cbr -e 210 -c 0 -i 34 -a 0 -x {0.0 2.0 34 ------- null}
h -t 0.17918 -s 4 -d 5 -p cbr -e 210 -c 0 -i 34 -a 0 -x {0.0 2.0 -1 ------- null}
+ -t 0.18 -s 0 -d 4 -p cbr -e 210 -c 0 -i 48 -a 0 -x {0.0 2.0 48 ------- null}
- -t 0.18 -s 0 -d 4 -p cbr -e 210 -c 0 -i 48 -a 0 -x {0.0 2.0 48 ------- null}
h -t 0.18 -s 0 -d 4 -p cbr -e 210 -c 0 -i 48 -a 0 -x {0.0 2.0 -1 ------- null}
r -t 0.18211 -s 4 -d 5 -p cbr -e 210 -c 0 -i 21 -a 0 -x {0.0 2.0 21 ------- null}
+ -t 0.18211 -s 5 -d 2 -p cbr -e 210 -c 0 -i 21 -a 0 -x {0.0 2.0 21 ------- null}
r -t 0.18293 -s 0 -d 4 -p cbr -e 210 -c 0 -i 35 -a 0 -x {0.0 2.0 35 ------- null}
+ -t 0.18293 -s 4 -d 5 -p cbr -e 210 -c 0 -i 35 -a 0 -x {0.0 2.0 35 ------- null}
- -t 0.18293 -s 4 -d 5 -p cbr -e 210 -c 0 -i 35 -a 0 -x {0.0 2.0 35 ------- null}
h -t 0.18293 -s 4 -d 5 -p cbr -e 210 -c 0 -i 35 -a 0 -x {0.0 2.0 -1 ------- null}
+ -t 0.18375 -s 0 -d 4 -p cbr -e 210 -c 0 -i 49 -a 0 -x {0.0 2.0 49 ------- null}
- -t 0.18375 -s 0 -d 4 -p cbr -e 210 -c 0 -i 49 -a 0 -x {0.0 2.0 49 ------- null}
h -t 0.18375 -s 0 -d 4 -p cbr -e 210 -c 0 -i 49 -a 0 -x {0.0 2.0 -1 ------- null}
r -t 0.18586 -s 4 -d 5 -p cbr -e 210 -c 0 -i 22 -a 0 -x {0.0 2.0 22 ------- null}
+ -t 0.18586 -s 5 -d 2 -p cbr -e 210 -c 0 -i 22 -a 0 -x {0.0 2.0 22 ------- null}
r -t 0.18668 -s 0 -d 4 -p cbr -e 210 -c 0 -i 36 -a 0 -x {0.0 2.0 36 ------- null}
+ -t 0.18668 -s 4 -d 5 -p cbr -e 210 -c 0 -i 36 -a 0 -x {0.0 2.0 36 ------- null}
- -t 0.18668 -s 4 -d 5 -p cbr -e 210 -c 0 -i 36 -a 0 -x {0.0 2.0 36 ------- null}
h -t 0.18668 -s 4 -d 5 -p cbr -e 210 -c 0 -i 36 -a 0 -x {0.0 2.0 -1 ------- null}
- -t 0.18736 -s 5 -d 2 -p cbr -e 210 -c 0 -i 5 -a 0 -x {0.0 2.0 5 ------- null}